n -t * -s 0  -x 99 -y 299 -Z 0 -z 20  -v circle -c black
n -t * -s 1  -x 299 -y 297 -Z 0 -z 20  -v circle -c black
n -t * -s 2  -x 499 -y 298 -Z 0 -z 20  -v circle -c black
n -t * -s 3  -x 700 -y 299 -Z 0 -z 20  -v circle -c black
n -t * -s 4  -x 199 -y 350 -Z 0 -z 20  -v circle -c black
n -t * -s 5  -x 599 -y 350 -Z 0 -z 20  -v circle -c black
n -t * -s 6  -x 600 -y 200 -Z 0 -z 20  -v circle -c black
V -t * -v 1.0a5 -a 0
W -t * -x 800 -y 541
A -t * -n 1 -p 0 -o 0x7fffffff -c 30 -a 1
A -t * -h 1 -m 1073741823 -s 0
n -t 0 -s 5 -S COLOR -c red -o red -i red -I red
n -t 0 -s 5 -S DLABEL -l "Attacker" -L ""
n -t 0 -s 0 -S COLOR -c green -o green -i green -I green
n -t 0 -s 0 -S DLABEL -l "Source" -L ""
n -t 0 -s 3 -S COLOR -c blue -o blue -i blue -I blue
n -t 0 -s 3 -S DLABEL -l "Destination" -L ""
+ -t 1.000000000 -s 0 -d -1 -p cbr -e 1000 -c 2 -a 0 -i 0 -k AGT 
- -t 1.000000000 -s 0 -d -1 -p cbr -e 1000 -c 2 -a 0 -i 0 -k AGT
h -t 1.000000000 -s 0 -d -1 -p cbr -e 1000 -c 2 -a 0 -i 0 -k AGT
+ -t 1.000000000 -s 0 -d -1 -p AODV -e 48 -c 2 -a 0 -i 0 -k RTR 
- -t 1.000000000 -s 0 -d -1 -p AODV -e 48 -c 2 -a 0 -i 0 -k RTR
h -t 1.000000000 -s 0 -d -1 -p AODV -e 48 -c 2 -a 0 -i 0 -k RTR
r -t 1.001408374 -s 4 -d -1 -p AODV -e 48 -c 2 -a 0 -i 0 -k RTR
r -t 1.001408667 -s 1 -d -1 -p AODV -e 48 -c 2 -a 0 -i 0 -k RTR
+ -t 1.001550421 -s 4 -d -1 -p AODV -e 48 -c 2 -a 0 -i 0 -k RTR 
- -t 1.001550421 -s 4 -d -1 -p AODV -e 48 -c 2 -a 0 -i 0 -k RTR
h -t 1.001550421 -s 4 -d -1 -p AODV -e 48 -c 2 -a 0 -i 0 -k RTR
+ -t 1.002289893 -s 1 -d -1 -p AODV -e 48 -c 2 -a 0 -i 0 -k RTR 
- -t 1.002289893 -s 1 -d -1 -p AODV -e 48 -c 2 -a 0 -i 0 -k RTR
h -t 1.002289893 -s 1 -d -1 -p AODV -e 48 -c 2 -a 0 -i 0 -k RTR
r -t 1.002818795 -s 0 -d -1 -p AODV -e 48 -c 2 -a 0 -i 0 -k RTR
r -t 1.002818798 -s 1 -d -1 -p AODV -e 48 -c 2 -a 0 -i 0 -k RTR
r -t 1.003717175 -s 4 -d -1 -p AODV -e 48 -c 2 -a 0 -i 0 -k RTR
r -t 1.003717465 -s 2 -d -1 -p AODV -e 48 -c 2 -a 0 -i 0 -k RTR
r -t 1.003717465 -s 0 -d -1 -p AODV -e 48 -c 2 -a 0 -i 0 -k RTR
+ -t 1.006063482 -s 2 -d -1 -p AODV -e 48 -c 2 -a 0 -i 0 -k RTR 
- -t 1.006063482 -s 2 -d -1 -p AODV -e 48 -c 2 -a 0 -i 0 -k RTR
h -t 1.006063482 -s 2 -d -1 -p AODV -e 48 -c 2 -a 0 -i 0 -k RTR
r -t 1.006113482 -s 5 -d -1 -p AODV -e 48 -c 2 -a 0 -i 0 -k RTR
r -t 1.007371858 -s 5 -d -1 -p AODV -e 48 -c 2 -a 0 -i 0 -k RTR
r -t 1.007371951 -s 6 -d -1 -p AODV -e 48 -c 2 -a 0 -i 0 -k RTR
r -t 1.007372149 -s 1 -d -1 -p AODV -e 48 -c 2 -a 0 -i 0 -k RTR
r -t 1.007372152 -s 3 -d -1 -p AODV -e 48 -c 2 -a 0 -i 0 -k RTR
+ -t 1.007372152 -s 3 -d 2 -p AODV -e 44 -c 2 -a 0 -i 0 -k RTR 
- -t 1.007372152 -s 3 -d 2 -p AODV -e 44 -c 2 -a 0 -i 0 -k RTR
h -t 1.007372152 -s 3 -d 2 -p AODV -e 44 -c 2 -a 0 -i 0 -k RTR
+ -t 1.009013405 -s 6 -d -1 -p AODV -e 48 -c 2 -a 0 -i 0 -k RTR 
- -t 1.009013405 -s 6 -d -1 -p AODV -e 48 -c 2 -a 0 -i 0 -k RTR
h -t 1.009013405 -s 6 -d -1 -p AODV -e 48 -c 2 -a 0 -i 0 -k RTR
+ -t 1.009204273 -s 5 -d -1 -p AODV -e 48 -c 2 -a 0 -i 0 -k RTR 
- -t 1.009204273 -s 5 -d -1 -p AODV -e 48 -c 2 -a 0 -i 0 -k RTR
h -t 1.009204273 -s 5 -d -1 -p AODV -e 48 -c 2 -a 0 -i 0 -k RTR
r -t 1.011874585 -s 2 -d -1 -p AODV -e 48 -c 2 -a 0 -i 0 -k RTR
r -t 1.011874587 -s 3 -d -1 -p AODV -e 48 -c 2 -a 0 -i 0 -k RTR
r -t 1.011874709 -s 6 -d -1 -p AODV -e 48 -c 2 -a 0 -i 0 -k RTR
r -t 1.012833178 -s 3 -d -1 -p AODV -e 48 -c 2 -a 0 -i 0 -k RTR
r -t 1.012833179 -s 2 -d -1 -p AODV -e 48 -c 2 -a 0 -i 0 -k RTR
r -t 1.012833209 -s 5 -d -1 -p AODV -e 48 -c 2 -a 0 -i 0 -k RTR
+ -t 1.014637189 -s 2 -d 1 -p AODV -e 44 -c 2 -a 0 -i 0 -k RTR 
- -t 1.014637189 -s 2 -d 1 -p AODV -e 44 -c 2 -a 0 -i 0 -k RTR
h -t 1.014637189 -s 2 -d 1 -p AODV -e 44 -c 2 -a 0 -i 0 -k RTR
+ -t 1.019828855 -s 1 -d 0 -p AODV -e 44 -c 2 -a 0 -i 0 -k RTR 
- -t 1.019828855 -s 1 -d 0 -p AODV -e 44 -c 2 -a 0 -i 0 -k RTR
h -t 1.019828855 -s 1 -d 0 -p AODV -e 44 -c 2 -a 0 -i 0 -k RTR
+ -t 1.025120522 -s 0 -d 1 -p cbr -e 1020 -c 2 -a 0 -i 0 -k RTR 
- -t 1.025120522 -s 0 -d 1 -p cbr -e 1020 -c 2 -a 0 -i 0 -k RTR
h -t 1.025120522 -s 0 -d 1 -p cbr -e 1020 -c 2 -a 0 -i 0 -k RTR
+ -t 1.035086522 -s 1 -d 2 -p cbr -e 1020 -c 2 -a 0 -i 0 -k RTR 
- -t 1.035086522 -s 1 -d 2 -p cbr -e 1020 -c 2 -a 0 -i 0 -k RTR
h -t 1.035086522 -s 1 -d 2 -p cbr -e 1020 -c 2 -a 0 -i 0 -k RTR
+ -t 1.044832522 -s 2 -d 3 -p cbr -e 1020 -c 2 -a 0 -i 0 -k RTR 
- -t 1.044832522 -s 2 -d 3 -p cbr -e 1020 -c 2 -a 0 -i 0 -k RTR
h -t 1.044832522 -s 2 -d 3 -p cbr -e 1020 -c 2 -a 0 -i 0 -k RTR
r -t 1.054578532 -s 3 -d 3 -p cbr -e 1020 -c 2 -a 0 -i 0 -k AGT
+ -t 1.080000000 -s 0 -d -1 -p cbr -e 1000 -c 2 -a 0 -i 1 -k AGT 
- -t 1.080000000 -s 0 -d -1 -p cbr -e 1000 -c 2 -a 0 -i 1 -k AGT
h -t 1.080000000 -s 0 -d -1 -p cbr -e 1000 -c 2 -a 0 -i 1 -k AGT
+ -t 1.080000000 -s 0 -d 1 -p cbr -e 1020 -c 2 -a 0 -i 1 -k RTR 
- -t 1.080000000 -s 0 -d 1 -p cbr -e 1020 -c 2 -a 0 -i 1 -k RTR
h -t 1.080000000 -s 0 -d 1 -p cbr -e 1020 -c 2 -a 0 -i 1 -k RTR
+ -t 1.089502000 -s 1 -d 2 -p cbr -e 1020 -c 2 -a 0 -i 1 -k RTR 
- -t 1.089502000 -s 1 -d 2 -p cbr -e 1020 -c 2 -a 0 -i 1 -k RTR
h -t 1.089502000 -s 1 -d 2 -p cbr -e 1020 -c 2 -a 0 -i 1 -k RTR
+ -t 1.099688000 -s 2 -d 3 -p cbr -e 1020 -c 2 -a 0 -i 1 -k RTR 
- -t 1.099688000 -s 2 -d 3 -p cbr -e 1020 -c 2 -a 0 -i 1 -k RTR
h -t 1.099688000 -s 2 -d 3 -p cbr -e 1020 -c 2 -a 0 -i 1 -k RTR
r -t 1.109554010 -s 3 -d 3 -p cbr -e 1020 -c 2 -a 0 -i 1 -k AGT
+ -t 1.160000000 -s 0 -d -1 -p cbr -e 1000 -c 2 -a 0 -i 2 -k AGT 
- -t 1.160000000 -s 0 -d -1 -p cbr -e 1000 -c 2 -a 0 -i 2 -k AGT
h -t 1.160000000 -s 0 -d -1 -p cbr -e 1000 -c 2 -a 0 -i 2 -k AGT
+ -t 1.160000000 -s 0 -d 1 -p cbr -e 1020 -c 2 -a 0 -i 2 -k RTR 
- -t 1.160000000 -s 0 -d 1 -p cbr -e 1020 -c 2 -a 0 -i 2 -k RTR
h -t 1.160000000 -s 0 -d 1 -p cbr -e 1020 -c 2 -a 0 -i 2 -k RTR
+ -t 1.169522000 -s 1 -d 2 -p cbr -e 1020 -c 2 -a 0 -i 2 -k RTR 
- -t 1.169522000 -s 1 -d 2 -p cbr -e 1020 -c 2 -a 0 -i 2 -k RTR
h -t 1.169522000 -s 1 -d 2 -p cbr -e 1020 -c 2 -a 0 -i 2 -k RTR
+ -t 1.179528000 -s 2 -d 3 -p cbr -e 1020 -c 2 -a 0 -i 2 -k RTR 
- -t 1.179528000 -s 2 -d 3 -p cbr -e 1020 -c 2 -a 0 -i 2 -k RTR
h -t 1.179528000 -s 2 -d 3 -p cbr -e 1020 -c 2 -a 0 -i 2 -k RTR
r -t 1.189474010 -s 3 -d 3 -p cbr -e 1020 -c 2 -a 0 -i 2 -k AGT
+ -t 1.240000000 -s 0 -d -1 -p cbr -e 1000 -c 2 -a 0 -i 3 -k AGT 
- -t 1.240000000 -s 0 -d -1 -p cbr -e 1000 -c 2 -a 0 -i 3 -k AGT
h -t 1.240000000 -s 0 -d -1 -p cbr -e 1000 -c 2 -a 0 -i 3 -k AGT
+ -t 1.240000000 -s 0 -d 1 -p cbr -e 1020 -c 2 -a 0 -i 3 -k RTR 
- -t 1.240000000 -s 0 -d 1 -p cbr -e 1020 -c 2 -a 0 -i 3 -k RTR
h -t 1.240000000 -s 0 -d 1 -p cbr -e 1020 -c 2 -a 0 -i 3 -k RTR
+ -t 1.249882000 -s 1 -d 2 -p cbr -e 1020 -c 2 -a 0 -i 3 -k RTR 
- -t 1.249882000 -s 1 -d 2 -p cbr -e 1020 -c 2 -a 0 -i 3 -k RTR
h -t 1.249882000 -s 1 -d 2 -p cbr -e 1020 -c 2 -a 0 -i 3 -k RTR
+ -t 1.259548000 -s 2 -d 3 -p cbr -e 1020 -c 2 -a 0 -i 3 -k RTR 
- -t 1.259548000 -s 2 -d 3 -p cbr -e 1020 -c 2 -a 0 -i 3 -k RTR
h -t 1.259548000 -s 2 -d 3 -p cbr -e 1020 -c 2 -a 0 -i 3 -k RTR
r -t 1.269534010 -s 3 -d 3 -p cbr -e 1020 -c 2 -a 0 -i 3 -k AGT
+ -t 1.320000000 -s 0 -d -1 -p cbr -e 1000 -c 2 -a 0 -i 4 -k AGT 
- -t 1.320000000 -s 0 -d -1 -p cbr -e 1000 -c 2 -a 0 -i 4 -k AGT
h -t 1.320000000 -s 0 -d -1 -p cbr -e 1000 -c 2 -a 0 -i 4 -k AGT
+ -t 1.320000000 -s 0 -d 1 -p cbr -e 1020 -c 2 -a 0 -i 4 -k RTR 
- -t 1.320000000 -s 0 -d 1 -p cbr -e 1020 -c 2 -a 0 -i 4 -k RTR
h -t 1.320000000 -s 0 -d 1 -p cbr -e 1020 -c 2 -a 0 -i 4 -k RTR
+ -t 1.329482000 -s 1 -d 2 -p cbr -e 1020 -c 2 -a 0 -i 4 -k RTR 
- -t 1.329482000 -s 1 -d 2 -p cbr -e 1020 -c 2 -a 0 -i 4 -k RTR
h -t 1.329482000 -s 1 -d 2 -p cbr -e 1020 -c 2 -a 0 -i 4 -k RTR
+ -t 1.339448000 -s 2 -d 3 -p cbr -e 1020 -c 2 -a 0 -i 4 -k RTR 
- -t 1.339448000 -s 2 -d 3 -p cbr -e 1020 -c 2 -a 0 -i 4 -k RTR
h -t 1.339448000 -s 2 -d 3 -p cbr -e 1020 -c 2 -a 0 -i 4 -k RTR
r -t 1.349354010 -s 3 -d 3 -p cbr -e 1020 -c 2 -a 0 -i 4 -k AGT
+ -t 1.400000000 -s 0 -d -1 -p cbr -e 1000 -c 2 -a 0 -i 5 -k AGT 
- -t 1.400000000 -s 0 -d -1 -p cbr -e 1000 -c 2 -a 0 -i 5 -k AGT
h -t 1.400000000 -s 0 -d -1 -p cbr -e 1000 -c 2 -a 0 -i 5 -k AGT
+ -t 1.400000000 -s 0 -d 1 -p cbr -e 1020 -c 2 -a 0 -i 5 -k RTR 
- -t 1.400000000 -s 0 -d 1 -p cbr -e 1020 -c 2 -a 0 -i 5 -k RTR
h -t 1.400000000 -s 0 -d 1 -p cbr -e 1020 -c 2 -a 0 -i 5 -k RTR
+ -t 1.409422000 -s 1 -d 2 -p cbr -e 1020 -c 2 -a 0 -i 5 -k RTR 
- -t 1.409422000 -s 1 -d 2 -p cbr -e 1020 -c 2 -a 0 -i 5 -k RTR
h -t 1.409422000 -s 1 -d 2 -p cbr -e 1020 -c 2 -a 0 -i 5 -k RTR
+ -t 1.419568000 -s 2 -d 3 -p cbr -e 1020 -c 2 -a 0 -i 5 -k RTR 
- -t 1.419568000 -s 2 -d 3 -p cbr -e 1020 -c 2 -a 0 -i 5 -k RTR
h -t 1.419568000 -s 2 -d 3 -p cbr -e 1020 -c 2 -a 0 -i 5 -k RTR
r -t 1.429354010 -s 3 -d 3 -p cbr -e 1020 -c 2 -a 0 -i 5 -k AGT
+ -t 1.480000000 -s 0 -d -1 -p cbr -e 1000 -c 2 -a 0 -i 6 -k AGT 
- -t 1.480000000 -s 0 -d -1 -p cbr -e 1000 -c 2 -a 0 -i 6 -k AGT
h -t 1.480000000 -s 0 -d -1 -p cbr -e 1000 -c 2 -a 0 -i 6 -k AGT
+ -t 1.480000000 -s 0 -d 1 -p cbr -e 1020 -c 2 -a 0 -i 6 -k RTR 
- -t 1.480000000 -s 0 -d 1 -p cbr -e 1020 -c 2 -a 0 -i 6 -k RTR
h -t 1.480000000 -s 0 -d 1 -p cbr -e 1020 -c 2 -a 0 -i 6 -k RTR
+ -t 1.489862000 -s 1 -d 2 -p cbr -e 1020 -c 2 -a 0 -i 6 -k RTR 
- -t 1.489862000 -s 1 -d 2 -p cbr -e 1020 -c 2 -a 0 -i 6 -k RTR
h -t 1.489862000 -s 1 -d 2 -p cbr -e 1020 -c 2 -a 0 -i 6 -k RTR
+ -t 1.499648000 -s 2 -d 3 -p cbr -e 1020 -c 2 -a 0 -i 6 -k RTR 
- -t 1.499648000 -s 2 -d 3 -p cbr -e 1020 -c 2 -a 0 -i 6 -k RTR
h -t 1.499648000 -s 2 -d 3 -p cbr -e 1020 -c 2 -a 0 -i 6 -k RTR
r -t 1.509414010 -s 3 -d 3 -p cbr -e 1020 -c 2 -a 0 -i 6 -k AGT
+ -t 1.560000000 -s 0 -d -1 -p cbr -e 1000 -c 2 -a 0 -i 7 -k AGT 
- -t 1.560000000 -s 0 -d -1 -p cbr -e 1000 -c 2 -a 0 -i 7 -k AGT
h -t 1.560000000 -s 0 -d -1 -p cbr -e 1000 -c 2 -a 0 -i 7 -k AGT
+ -t 1.560000000 -s 0 -d 1 -p cbr -e 1020 -c 2 -a 0 -i 7 -k RTR 
- -t 1.560000000 -s 0 -d 1 -p cbr -e 1020 -c 2 -a 0 -i 7 -k RTR
h -t 1.560000000 -s 0 -d 1 -p cbr -e 1020 -c 2 -a 0 -i 7 -k RTR
+ -t 1.569602000 -s 1 -d 2 -p cbr -e 1020 -c 2 -a 0 -i 7 -k RTR 
- -t 1.569602000 -s 1 -d 2 -p cbr -e 1020 -c 2 -a 0 -i 7 -k RTR
h -t 1.569602000 -s 1 -d 2 -p cbr -e 1020 -c 2 -a 0 -i 7 -k RTR
+ -t 1.579328000 -s 2 -d 3 -p cbr -e 1020 -c 2 -a 0 -i 7 -k RTR 
- -t 1.579328000 -s 2 -d 3 -p cbr -e 1020 -c 2 -a 0 -i 7 -k RTR
h -t 1.579328000 -s 2 -d 3 -p cbr -e 1020 -c 2 -a 0 -i 7 -k RTR
r -t 1.589594010 -s 3 -d 3 -p cbr -e 1020 -c 2 -a 0 -i 7 -k AGT
+ -t 1.640000000 -s 0 -d -1 -p cbr -e 1000 -c 2 -a 0 -i 8 -k AGT 
- -t 1.640000000 -s 0 -d -1 -p cbr -e 1000 -c 2 -a 0 -i 8 -k AGT
h -t 1.640000000 -s 0 -d -1 -p cbr -e 1000 -c 2 -a 0 -i 8 -k AGT
+ -t 1.640000000 -s 0 -d 1 -p cbr -e 1020 -c 2 -a 0 -i 8 -k RTR 
- -t 1.640000000 -s 0 -d 1 -p cbr -e 1020 -c 2 -a 0 -i 8 -k RTR
h -t 1.640000000 -s 0 -d 1 -p cbr -e 1020 -c 2 -a 0 -i 8 -k RTR
+ -t 1.649982000 -s 1 -d 2 -p cbr -e 1020 -c 2 -a 0 -i 8 -k RTR 
- -t 1.649982000 -s 1 -d 2 -p cbr -e 1020 -c 2 -a 0 -i 8 -k RTR
h -t 1.649982000 -s 1 -d 2 -p cbr -e 1020 -c 2 -a 0 -i 8 -k RTR
+ -t 1.659768000 -s 2 -d 3 -p cbr -e 1020 -c 2 -a 0 -i 8 -k RTR 
- -t 1.659768000 -s 2 -d 3 -p cbr -e 1020 -c 2 -a 0 -i 8 -k RTR
h -t 1.659768000 -s 2 -d 3 -p cbr -e 1020 -c 2 -a 0 -i 8 -k RTR
r -t 1.669874010 -s 3 -d 3 -p cbr -e 1020 -c 2 -a 0 -i 8 -k AGT
+ -t 1.720000000 -s 0 -d -1 -p cbr -e 1000 -c 2 -a 0 -i 9 -k AGT 
- -t 1.720000000 -s 0 -d -1 -p cbr -e 1000 -c 2 -a 0 -i 9 -k AGT
h -t 1.720000000 -s 0 -d -1 -p cbr -e 1000 -c 2 -a 0 -i 9 -k AGT
+ -t 1.720000000 -s 0 -d 1 -p cbr -e 1020 -c 2 -a 0 -i 9 -k RTR 
- -t 1.720000000 -s 0 -d 1 -p cbr -e 1020 -c 2 -a 0 -i 9 -k RTR
h -t 1.720000000 -s 0 -d 1 -p cbr -e 1020 -c 2 -a 0 -i 9 -k RTR
+ -t 1.729702000 -s 1 -d 2 -p cbr -e 1020 -c 2 -a 0 -i 9 -k RTR 
- -t 1.729702000 -s 1 -d 2 -p cbr -e 1020 -c 2 -a 0 -i 9 -k RTR
h -t 1.729702000 -s 1 -d 2 -p cbr -e 1020 -c 2 -a 0 -i 9 -k RTR
+ -t 1.739668000 -s 2 -d 3 -p cbr -e 1020 -c 2 -a 0 -i 9 -k RTR 
- -t 1.739668000 -s 2 -d 3 -p cbr -e 1020 -c 2 -a 0 -i 9 -k RTR
h -t 1.739668000 -s 2 -d 3 -p cbr -e 1020 -c 2 -a 0 -i 9 -k RTR
r -t 1.749374010 -s 3 -d 3 -p cbr -e 1020 -c 2 -a 0 -i 9 -k AGT
+ -t 1.800000000 -s 0 -d -1 -p cbr -e 1000 -c 2 -a 0 -i 10 -k AGT 
- -t 1.800000000 -s 0 -d -1 -p cbr -e 1000 -c 2 -a 0 -i 10 -k AGT
h -t 1.800000000 -s 0 -d -1 -p cbr -e 1000 -c 2 -a 0 -i 10 -k AGT
+ -t 1.800000000 -s 0 -d 1 -p cbr -e 1020 -c 2 -a 0 -i 10 -k RTR 
- -t 1.800000000 -s 0 -d 1 -p cbr -e 1020 -c 2 -a 0 -i 10 -k RTR
h -t 1.800000000 -s 0 -d 1 -p cbr -e 1020 -c 2 -a 0 -i 10 -k RTR
+ -t 1.809582000 -s 1 -d 2 -p cbr -e 1020 -c 2 -a 0 -i 10 -k RTR 
- -t 1.809582000 -s 1 -d 2 -p cbr -e 1020 -c 2 -a 0 -i 10 -k RTR
h -t 1.809582000 -s 1 -d 2 -p cbr -e 1020 -c 2 -a 0 -i 10 -k RTR
+ -t 1.819408000 -s 2 -d 3 -p cbr -e 1020 -c 2 -a 0 -i 10 -k RTR 
- -t 1.819408000 -s 2 -d 3 -p cbr -e 1020 -c 2 -a 0 -i 10 -k RTR
h -t 1.819408000 -s 2 -d 3 -p cbr -e 1020 -c 2 -a 0 -i 10 -k RTR
r -t 1.829474010 -s 3 -d 3 -p cbr -e 1020 -c 2 -a 0 -i 10 -k AGT
+ -t 1.880000000 -s 0 -d -1 -p cbr -e 1000 -c 2 -a 0 -i 11 -k AGT 
- -t 1.880000000 -s 0 -d -1 -p cbr -e 1000 -c 2 -a 0 -i 11 -k AGT
h -t 1.880000000 -s 0 -d -1 -p cbr -e 1000 -c 2 -a 0 -i 11 -k AGT
+ -t 1.880000000 -s 0 -d 1 -p cbr -e 1020 -c 2 -a 0 -i 11 -k RTR 
- -t 1.880000000 -s 0 -d 1 -p cbr -e 1020 -c 2 -a 0 -i 11 -k RTR
h -t 1.880000000 -s 0 -d 1 -p cbr -e 1020 -c 2 -a 0 -i 11 -k RTR
+ -t 1.889622000 -s 1 -d 2 -p cbr -e 1020 -c 2 -a 0 -i 11 -k RTR 
- -t 1.889622000 -s 1 -d 2 -p cbr -e 1020 -c 2 -a 0 -i 11 -k RTR
h -t 1.889622000 -s 1 -d 2 -p cbr -e 1020 -c 2 -a 0 -i 11 -k RTR
+ -t 1.899288000 -s 2 -d 3 -p cbr -e 1020 -c 2 -a 0 -i 11 -k RTR 
- -t 1.899288000 -s 2 -d 3 -p cbr -e 1020 -c 2 -a 0 -i 11 -k RTR
h -t 1.899288000 -s 2 -d 3 -p cbr -e 1020 -c 2 -a 0 -i 11 -k RTR
r -t 1.909314010 -s 3 -d 3 -p cbr -e 1020 -c 2 -a 0 -i 11 -k AGT
+ -t 1.960000000 -s 0 -d -1 -p cbr -e 1000 -c 2 -a 0 -i 12 -k AGT 
- -t 1.960000000 -s 0 -d -1 -p cbr -e 1000 -c 2 -a 0 -i 12 -k AGT
h -t 1.960000000 -s 0 -d -1 -p cbr -e 1000 -c 2 -a 0 -i 12 -k AGT
+ -t 1.960000000 -s 0 -d 1 -p cbr -e 1020 -c 2 -a 0 -i 12 -k RTR 
- -t 1.960000000 -s 0 -d 1 -p cbr -e 1020 -c 2 -a 0 -i 12 -k RTR
h -t 1.960000000 -s 0 -d 1 -p cbr -e 1020 -c 2 -a 0 -i 12 -k RTR
+ -t 1.969902000 -s 1 -d 2 -p cbr -e 1020 -c 2 -a 0 -i 12 -k RTR 
- -t 1.969902000 -s 1 -d 2 -p cbr -e 1020 -c 2 -a 0 -i 12 -k RTR
h -t 1.969902000 -s 1 -d 2 -p cbr -e 1020 -c 2 -a 0 -i 12 -k RTR
+ -t 1.979888000 -s 2 -d 3 -p cbr -e 1020 -c 2 -a 0 -i 12 -k RTR 
- -t 1.979888000 -s 2 -d 3 -p cbr -e 1020 -c 2 -a 0 -i 12 -k RTR
h -t 1.979888000 -s 2 -d 3 -p cbr -e 1020 -c 2 -a 0 -i 12 -k RTR
r -t 1.989574010 -s 3 -d 3 -p cbr -e 1020 -c 2 -a 0 -i 12 -k AGT
+ -t 2.040000000 -s 0 -d -1 -p cbr -e 1000 -c 2 -a 0 -i 13 -k AGT 
- -t 2.040000000 -s 0 -d -1 -p cbr -e 1000 -c 2 -a 0 -i 13 -k AGT
h -t 2.040000000 -s 0 -d -1 -p cbr -e 1000 -c 2 -a 0 -i 13 -k AGT
+ -t 2.040000000 -s 0 -d 1 -p cbr -e 1020 -c 2 -a 0 -i 13 -k RTR 
- -t 2.040000000 -s 0 -d 1 -p cbr -e 1020 -c 2 -a 0 -i 13 -k RTR
h -t 2.040000000 -s 0 -d 1 -p cbr -e 1020 -c 2 -a 0 -i 13 -k RTR
+ -t 2.049402000 -s 1 -d 2 -p cbr -e 1020 -c 2 -a 0 -i 13 -k RTR 
- -t 2.049402000 -s 1 -d 2 -p cbr -e 1020 -c 2 -a 0 -i 13 -k RTR
h -t 2.049402000 -s 1 -d 2 -p cbr -e 1020 -c 2 -a 0 -i 13 -k RTR
+ -t 2.059128000 -s 2 -d 3 -p cbr -e 1020 -c 2 -a 0 -i 13 -k RTR 
- -t 2.059128000 -s 2 -d 3 -p cbr -e 1020 -c 2 -a 0 -i 13 -k RTR
h -t 2.059128000 -s 2 -d 3 -p cbr -e 1020 -c 2 -a 0 -i 13 -k RTR
r -t 2.069394010 -s 3 -d 3 -p cbr -e 1020 -c 2 -a 0 -i 13 -k AGT
+ -t 2.120000000 -s 0 -d -1 -p cbr -e 1000 -c 2 -a 0 -i 14 -k AGT 
- -t 2.120000000 -s 0 -d -1 -p cbr -e 1000 -c 2 -a 0 -i 14 -k AGT
h -t 2.120000000 -s 0 -d -1 -p cbr -e 1000 -c 2 -a 0 -i 14 -k AGT
+ -t 2.120000000 -s 0 -d 1 -p cbr -e 1020 -c 2 -a 0 -i 14 -k RTR 
- -t 2.120000000 -s 0 -d 1 -p cbr -e 1020 -c 2 -a 0 -i 14 -k RTR
h -t 2.120000000 -s 0 -d 1 -p cbr -e 1020 -c 2 -a 0 -i 14 -k RTR
+ -t 2.129422000 -s 1 -d 2 -p cbr -e 1020 -c 2 -a 0 -i 14 -k RTR 
- -t 2.129422000 -s 1 -d 2 -p cbr -e 1020 -c 2 -a 0 -i 14 -k RTR
h -t 2.129422000 -s 1 -d 2 -p cbr -e 1020 -c 2 -a 0 -i 14 -k RTR
+ -t 2.139148000 -s 2 -d 3 -p cbr -e 1020 -c 2 -a 0 -i 14 -k RTR 
- -t 2.139148000 -s 2 -d 3 -p cbr -e 1020 -c 2 -a 0 -i 14 -k RTR
h -t 2.139148000 -s 2 -d 3 -p cbr -e 1020 -c 2 -a 0 -i 14 -k RTR
r -t 2.148834010 -s 3 -d 3 -p cbr -e 1020 -c 2 -a 0 -i 14 -k AGT
+ -t 2.200000000 -s 0 -d -1 -p cbr -e 1000 -c 2 -a 0 -i 15 -k AGT 
- -t 2.200000000 -s 0 -d -1 -p cbr -e 1000 -c 2 -a 0 -i 15 -k AGT
h -t 2.200000000 -s 0 -d -1 -p cbr -e 1000 -c 2 -a 0 -i 15 -k AGT
+ -t 2.200000000 -s 0 -d 1 -p cbr -e 1020 -c 2 -a 0 -i 15 -k RTR 
- -t 2.200000000 -s 0 -d 1 -p cbr -e 1020 -c 2 -a 0 -i 15 -k RTR
h -t 2.200000000 -s 0 -d 1 -p cbr -e 1020 -c 2 -a 0 -i 15 -k RTR
+ -t 2.209842000 -s 1 -d 2 -p cbr -e 1020 -c 2 -a 0 -i 15 -k RTR 
- -t 2.209842000 -s 1 -d 2 -p cbr -e 1020 -c 2 -a 0 -i 15 -k RTR
h -t 2.209842000 -s 1 -d 2 -p cbr -e 1020 -c 2 -a 0 -i 15 -k RTR
+ -t 2.219888000 -s 2 -d 3 -p cbr -e 1020 -c 2 -a 0 -i 15 -k RTR 
- -t 2.219888000 -s 2 -d 3 -p cbr -e 1020 -c 2 -a 0 -i 15 -k RTR
h -t 2.219888000 -s 2 -d 3 -p cbr -e 1020 -c 2 -a 0 -i 15 -k RTR
r -t 2.229874010 -s 3 -d 3 -p cbr -e 1020 -c 2 -a 0 -i 15 -k AGT
+ -t 2.280000000 -s 0 -d -1 -p cbr -e 1000 -c 2 -a 0 -i 16 -k AGT 
- -t 2.280000000 -s 0 -d -1 -p cbr -e 1000 -c 2 -a 0 -i 16 -k AGT
h -t 2.280000000 -s 0 -d -1 -p cbr -e 1000 -c 2 -a 0 -i 16 -k AGT
+ -t 2.280000000 -s 0 -d 1 -p cbr -e 1020 -c 2 -a 0 -i 16 -k RTR 
- -t 2.280000000 -s 0 -d 1 -p cbr -e 1020 -c 2 -a 0 -i 16 -k RTR
h -t 2.280000000 -s 0 -d 1 -p cbr -e 1020 -c 2 -a 0 -i 16 -k RTR
+ -t 2.289582000 -s 1 -d 2 -p cbr -e 1020 -c 2 -a 0 -i 16 -k RTR 
- -t 2.289582000 -s 1 -d 2 -p cbr -e 1020 -c 2 -a 0 -i 16 -k RTR
h -t 2.289582000 -s 1 -d 2 -p cbr -e 1020 -c 2 -a 0 -i 16 -k RTR
+ -t 2.299388000 -s 2 -d 3 -p cbr -e 1020 -c 2 -a 0 -i 16 -k RTR 
- -t 2.299388000 -s 2 -d 3 -p cbr -e 1020 -c 2 -a 0 -i 16 -k RTR
h -t 2.299388000 -s 2 -d 3 -p cbr -e 1020 -c 2 -a 0 -i 16 -k RTR
r -t 2.309054010 -s 3 -d 3 -p cbr -e 1020 -c 2 -a 0 -i 16 -k AGT
+ -t 2.360000000 -s 0 -d -1 -p cbr -e 1000 -c 2 -a 0 -i 17 -k AGT 
- -t 2.360000000 -s 0 -d -1 -p cbr -e 1000 -c 2 -a 0 -i 17 -k AGT
h -t 2.360000000 -s 0 -d -1 -p cbr -e 1000 -c 2 -a 0 -i 17 -k AGT
+ -t 2.360000000 -s 0 -d 1 -p cbr -e 1020 -c 2 -a 0 -i 17 -k RTR 
- -t 2.360000000 -s 0 -d 1 -p cbr -e 1020 -c 2 -a 0 -i 17 -k RTR
h -t 2.360000000 -s 0 -d 1 -p cbr -e 1020 -c 2 -a 0 -i 17 -k RTR
+ -t 2.369942000 -s 1 -d 2 -p cbr -e 1020 -c 2 -a 0 -i 17 -k RTR 
- -t 2.369942000 -s 1 -d 2 -p cbr -e 1020 -c 2 -a 0 -i 17 -k RTR
h -t 2.369942000 -s 1 -d 2 -p cbr -e 1020 -c 2 -a 0 -i 17 -k RTR
+ -t 2.380168000 -s 2 -d 3 -p cbr -e 1020 -c 2 -a 0 -i 17 -k RTR 
- -t 2.380168000 -s 2 -d 3 -p cbr -e 1020 -c 2 -a 0 -i 17 -k RTR
h -t 2.380168000 -s 2 -d 3 -p cbr -e 1020 -c 2 -a 0 -i 17 -k RTR
r -t 2.390414010 -s 3 -d 3 -p cbr -e 1020 -c 2 -a 0 -i 17 -k AGT
+ -t 2.440000000 -s 0 -d -1 -p cbr -e 1000 -c 2 -a 0 -i 18 -k AGT 
- -t 2.440000000 -s 0 -d -1 -p cbr -e 1000 -c 2 -a 0 -i 18 -k AGT
h -t 2.440000000 -s 0 -d -1 -p cbr -e 1000 -c 2 -a 0 -i 18 -k AGT
+ -t 2.440000000 -s 0 -d 1 -p cbr -e 1020 -c 2 -a 0 -i 18 -k RTR 
- -t 2.440000000 -s 0 -d 1 -p cbr -e 1020 -c 2 -a 0 -i 18 -k RTR
h -t 2.440000000 -s 0 -d 1 -p cbr -e 1020 -c 2 -a 0 -i 18 -k RTR
+ -t 2.449542000 -s 1 -d 2 -p cbr -e 1020 -c 2 -a 0 -i 18 -k RTR 
- -t 2.449542000 -s 1 -d 2 -p cbr -e 1020 -c 2 -a 0 -i 18 -k RTR
h -t 2.449542000 -s 1 -d 2 -p cbr -e 1020 -c 2 -a 0 -i 18 -k RTR
+ -t 2.459448000 -s 2 -d 3 -p cbr -e 1020 -c 2 -a 0 -i 18 -k RTR 
- -t 2.459448000 -s 2 -d 3 -p cbr -e 1020 -c 2 -a 0 -i 18 -k RTR
h -t 2.459448000 -s 2 -d 3 -p cbr -e 1020 -c 2 -a 0 -i 18 -k RTR
r -t 2.469214010 -s 3 -d 3 -p cbr -e 1020 -c 2 -a 0 -i 18 -k AGT
+ -t 2.520000000 -s 0 -d -1 -p cbr -e 1000 -c 2 -a 0 -i 19 -k AGT 
- -t 2.520000000 -s 0 -d -1 -p cbr -e 1000 -c 2 -a 0 -i 19 -k AGT
h -t 2.520000000 -s 0 -d -1 -p cbr -e 1000 -c 2 -a 0 -i 19 -k AGT
+ -t 2.520000000 -s 0 -d 1 -p cbr -e 1020 -c 2 -a 0 -i 19 -k RTR 
- -t 2.520000000 -s 0 -d 1 -p cbr -e 1020 -c 2 -a 0 -i 19 -k RTR
h -t 2.520000000 -s 0 -d 1 -p cbr -e 1020 -c 2 -a 0 -i 19 -k RTR
+ -t 2.529782000 -s 1 -d 2 -p cbr -e 1020 -c 2 -a 0 -i 19 -k RTR 
- -t 2.529782000 -s 1 -d 2 -p cbr -e 1020 -c 2 -a 0 -i 19 -k RTR
h -t 2.529782000 -s 1 -d 2 -p cbr -e 1020 -c 2 -a 0 -i 19 -k RTR
+ -t 2.539948000 -s 2 -d 3 -p cbr -e 1020 -c 2 -a 0 -i 19 -k RTR 
- -t 2.539948000 -s 2 -d 3 -p cbr -e 1020 -c 2 -a 0 -i 19 -k RTR
h -t 2.539948000 -s 2 -d 3 -p cbr -e 1020 -c 2 -a 0 -i 19 -k RTR
r -t 2.549614010 -s 3 -d 3 -p cbr -e 1020 -c 2 -a 0 -i 19 -k AGT
+ -t 2.600000000 -s 0 -d -1 -p cbr -e 1000 -c 2 -a 0 -i 20 -k AGT 
- -t 2.600000000 -s 0 -d -1 -p cbr -e 1000 -c 2 -a 0 -i 20 -k AGT
h -t 2.600000000 -s 0 -d -1 -p cbr -e 1000 -c 2 -a 0 -i 20 -k AGT
+ -t 2.600000000 -s 0 -d 1 -p cbr -e 1020 -c 2 -a 0 -i 20 -k RTR 
- -t 2.600000000 -s 0 -d 1 -p cbr -e 1020 -c 2 -a 0 -i 20 -k RTR
h -t 2.600000000 -s 0 -d 1 -p cbr -e 1020 -c 2 -a 0 -i 20 -k RTR
+ -t 2.609562000 -s 1 -d 2 -p cbr -e 1020 -c 2 -a 0 -i 20 -k RTR 
- -t 2.609562000 -s 1 -d 2 -p cbr -e 1020 -c 2 -a 0 -i 20 -k RTR
h -t 2.609562000 -s 1 -d 2 -p cbr -e 1020 -c 2 -a 0 -i 20 -k RTR
+ -t 2.619728000 -s 2 -d 3 -p cbr -e 1020 -c 2 -a 0 -i 20 -k RTR 
- -t 2.619728000 -s 2 -d 3 -p cbr -e 1020 -c 2 -a 0 -i 20 -k RTR
h -t 2.619728000 -s 2 -d 3 -p cbr -e 1020 -c 2 -a 0 -i 20 -k RTR
r -t 2.629534010 -s 3 -d 3 -p cbr -e 1020 -c 2 -a 0 -i 20 -k AGT
+ -t 2.680000000 -s 0 -d -1 -p cbr -e 1000 -c 2 -a 0 -i 21 -k AGT 
- -t 2.680000000 -s 0 -d -1 -p cbr -e 1000 -c 2 -a 0 -i 21 -k AGT
h -t 2.680000000 -s 0 -d -1 -p cbr -e 1000 -c 2 -a 0 -i 21 -k AGT
+ -t 2.680000000 -s 0 -d 1 -p cbr -e 1020 -c 2 -a 0 -i 21 -k RTR 
- -t 2.680000000 -s 0 -d 1 -p cbr -e 1020 -c 2 -a 0 -i 21 -k RTR
h -t 2.680000000 -s 0 -d 1 -p cbr -e 1020 -c 2 -a 0 -i 21 -k RTR
+ -t 2.689442000 -s 1 -d 2 -p cbr -e 1020 -c 2 -a 0 -i 21 -k RTR 
- -t 2.689442000 -s 1 -d 2 -p cbr -e 1020 -c 2 -a 0 -i 21 -k RTR
h -t 2.689442000 -s 1 -d 2 -p cbr -e 1020 -c 2 -a 0 -i 21 -k RTR
+ -t 2.699588000 -s 2 -d 3 -p cbr -e 1020 -c 2 -a 0 -i 21 -k RTR 
- -t 2.699588000 -s 2 -d 3 -p cbr -e 1020 -c 2 -a 0 -i 21 -k RTR
h -t 2.699588000 -s 2 -d 3 -p cbr -e 1020 -c 2 -a 0 -i 21 -k RTR
r -t 2.709254010 -s 3 -d 3 -p cbr -e 1020 -c 2 -a 0 -i 21 -k AGT
+ -t 2.760000000 -s 0 -d -1 -p cbr -e 1000 -c 2 -a 0 -i 22 -k AGT 
- -t 2.760000000 -s 0 -d -1 -p cbr -e 1000 -c 2 -a 0 -i 22 -k AGT
h -t 2.760000000 -s 0 -d -1 -p cbr -e 1000 -c 2 -a 0 -i 22 -k AGT
+ -t 2.760000000 -s 0 -d 1 -p cbr -e 1020 -c 2 -a 0 -i 22 -k RTR 
- -t 2.760000000 -s 0 -d 1 -p cbr -e 1020 -c 2 -a 0 -i 22 -k RTR
h -t 2.760000000 -s 0 -d 1 -p cbr -e 1020 -c 2 -a 0 -i 22 -k RTR
+ -t 2.769702000 -s 1 -d 2 -p cbr -e 1020 -c 2 -a 0 -i 22 -k RTR 
- -t 2.769702000 -s 1 -d 2 -p cbr -e 1020 -c 2 -a 0 -i 22 -k RTR
h -t 2.769702000 -s 1 -d 2 -p cbr -e 1020 -c 2 -a 0 -i 22 -k RTR
+ -t 2.779708000 -s 2 -d 3 -p cbr -e 1020 -c 2 -a 0 -i 22 -k RTR 
- -t 2.779708000 -s 2 -d 3 -p cbr -e 1020 -c 2 -a 0 -i 22 -k RTR
h -t 2.779708000 -s 2 -d 3 -p cbr -e 1020 -c 2 -a 0 -i 22 -k RTR
r -t 2.789854010 -s 3 -d 3 -p cbr -e 1020 -c 2 -a 0 -i 22 -k AGT
+ -t 2.840000000 -s 0 -d -1 -p cbr -e 1000 -c 2 -a 0 -i 23 -k AGT 
- -t 2.840000000 -s 0 -d -1 -p cbr -e 1000 -c 2 -a 0 -i 23 -k AGT
h -t 2.840000000 -s 0 -d -1 -p cbr -e 1000 -c 2 -a 0 -i 23 -k AGT
+ -t 2.840000000 -s 0 -d 1 -p cbr -e 1020 -c 2 -a 0 -i 23 -k RTR 
- -t 2.840000000 -s 0 -d 1 -p cbr -e 1020 -c 2 -a 0 -i 23 -k RTR
h -t 2.840000000 -s 0 -d 1 -p cbr -e 1020 -c 2 -a 0 -i 23 -k RTR
+ -t 2.849902000 -s 1 -d 2 -p cbr -e 1020 -c 2 -a 0 -i 23 -k RTR 
- -t 2.849902000 -s 1 -d 2 -p cbr -e 1020 -c 2 -a 0 -i 23 -k RTR
h -t 2.849902000 -s 1 -d 2 -p cbr -e 1020 -c 2 -a 0 -i 23 -k RTR
+ -t 2.859648000 -s 2 -d 3 -p cbr -e 1020 -c 2 -a 0 -i 23 -k RTR 
- -t 2.859648000 -s 2 -d 3 -p cbr -e 1020 -c 2 -a 0 -i 23 -k RTR
h -t 2.859648000 -s 2 -d 3 -p cbr -e 1020 -c 2 -a 0 -i 23 -k RTR
r -t 2.869314010 -s 3 -d 3 -p cbr -e 1020 -c 2 -a 0 -i 23 -k AGT
+ -t 2.920000000 -s 0 -d -1 -p cbr -e 1000 -c 2 -a 0 -i 24 -k AGT 
- -t 2.920000000 -s 0 -d -1 -p cbr -e 1000 -c 2 -a 0 -i 24 -k AGT
h -t 2.920000000 -s 0 -d -1 -p cbr -e 1000 -c 2 -a 0 -i 24 -k AGT
+ -t 2.920000000 -s 0 -d 1 -p cbr -e 1020 -c 2 -a 0 -i 24 -k RTR 
- -t 2.920000000 -s 0 -d 1 -p cbr -e 1020 -c 2 -a 0 -i 24 -k RTR
h -t 2.920000000 -s 0 -d 1 -p cbr -e 1020 -c 2 -a 0 -i 24 -k RTR
+ -t 2.929782000 -s 1 -d 2 -p cbr -e 1020 -c 2 -a 0 -i 24 -k RTR 
- -t 2.929782000 -s 1 -d 2 -p cbr -e 1020 -c 2 -a 0 -i 24 -k RTR
h -t 2.929782000 -s 1 -d 2 -p cbr -e 1020 -c 2 -a 0 -i 24 -k RTR
+ -t 2.939508000 -s 2 -d 3 -p cbr -e 1020 -c 2 -a 0 -i 24 -k RTR 
- -t 2.939508000 -s 2 -d 3 -p cbr -e 1020 -c 2 -a 0 -i 24 -k RTR
h -t 2.939508000 -s 2 -d 3 -p cbr -e 1020 -c 2 -a 0 -i 24 -k RTR
r -t 2.949574010 -s 3 -d 3 -p cbr -e 1020 -c 2 -a 0 -i 24 -k AGT
+ -t 3.000000000 -s 0 -d -1 -p cbr -e 1000 -c 2 -a 0 -i 25 -k AGT 
- -t 3.000000000 -s 0 -d -1 -p cbr -e 1000 -c 2 -a 0 -i 25 -k AGT
h -t 3.000000000 -s 0 -d -1 -p cbr -e 1000 -c 2 -a 0 -i 25 -k AGT
+ -t 3.000000000 -s 0 -d 1 -p cbr -e 1020 -c 2 -a 0 -i 25 -k RTR 
- -t 3.000000000 -s 0 -d 1 -p cbr -e 1020 -c 2 -a 0 -i 25 -k RTR
h -t 3.000000000 -s 0 -d 1 -p cbr -e 1020 -c 2 -a 0 -i 25 -k RTR
+ -t 3.009422000 -s 1 -d 2 -p cbr -e 1020 -c 2 -a 0 -i 25 -k RTR 
- -t 3.009422000 -s 1 -d 2 -p cbr -e 1020 -c 2 -a 0 -i 25 -k RTR
h -t 3.009422000 -s 1 -d 2 -p cbr -e 1020 -c 2 -a 0 -i 25 -k RTR
+ -t 3.019088000 -s 2 -d 3 -p cbr -e 1020 -c 2 -a 0 -i 25 -k RTR 
- -t 3.019088000 -s 2 -d 3 -p cbr -e 1020 -c 2 -a 0 -i 25 -k RTR
h -t 3.019088000 -s 2 -d 3 -p cbr -e 1020 -c 2 -a 0 -i 25 -k RTR
r -t 3.029314010 -s 3 -d 3 -p cbr -e 1020 -c 2 -a 0 -i 25 -k AGT
+ -t 3.080000000 -s 0 -d -1 -p cbr -e 1000 -c 2 -a 0 -i 26 -k AGT 
- -t 3.080000000 -s 0 -d -1 -p cbr -e 1000 -c 2 -a 0 -i 26 -k AGT
h -t 3.080000000 -s 0 -d -1 -p cbr -e 1000 -c 2 -a 0 -i 26 -k AGT
+ -t 3.080000000 -s 0 -d 1 -p cbr -e 1020 -c 2 -a 0 -i 26 -k RTR 
- -t 3.080000000 -s 0 -d 1 -p cbr -e 1020 -c 2 -a 0 -i 26 -k RTR
h -t 3.080000000 -s 0 -d 1 -p cbr -e 1020 -c 2 -a 0 -i 26 -k RTR
+ -t 3.089562000 -s 1 -d 2 -p cbr -e 1020 -c 2 -a 0 -i 26 -k RTR 
- -t 3.089562000 -s 1 -d 2 -p cbr -e 1020 -c 2 -a 0 -i 26 -k RTR
h -t 3.089562000 -s 1 -d 2 -p cbr -e 1020 -c 2 -a 0 -i 26 -k RTR
+ -t 3.099588000 -s 2 -d 3 -p cbr -e 1020 -c 2 -a 0 -i 26 -k RTR 
- -t 3.099588000 -s 2 -d 3 -p cbr -e 1020 -c 2 -a 0 -i 26 -k RTR
h -t 3.099588000 -s 2 -d 3 -p cbr -e 1020 -c 2 -a 0 -i 26 -k RTR
r -t 3.109474010 -s 3 -d 3 -p cbr -e 1020 -c 2 -a 0 -i 26 -k AGT
+ -t 3.160000000 -s 0 -d -1 -p cbr -e 1000 -c 2 -a 0 -i 27 -k AGT 
- -t 3.160000000 -s 0 -d -1 -p cbr -e 1000 -c 2 -a 0 -i 27 -k AGT
h -t 3.160000000 -s 0 -d -1 -p cbr -e 1000 -c 2 -a 0 -i 27 -k AGT
+ -t 3.160000000 -s 0 -d 1 -p cbr -e 1020 -c 2 -a 0 -i 27 -k RTR 
- -t 3.160000000 -s 0 -d 1 -p cbr -e 1020 -c 2 -a 0 -i 27 -k RTR
h -t 3.160000000 -s 0 -d 1 -p cbr -e 1020 -c 2 -a 0 -i 27 -k RTR
+ -t 3.169502000 -s 1 -d 2 -p cbr -e 1020 -c 2 -a 0 -i 27 -k RTR 
- -t 3.169502000 -s 1 -d 2 -p cbr -e 1020 -c 2 -a 0 -i 27 -k RTR
h -t 3.169502000 -s 1 -d 2 -p cbr -e 1020 -c 2 -a 0 -i 27 -k RTR
+ -t 3.179628000 -s 2 -d 3 -p cbr -e 1020 -c 2 -a 0 -i 27 -k RTR 
- -t 3.179628000 -s 2 -d 3 -p cbr -e 1020 -c 2 -a 0 -i 27 -k RTR
h -t 3.179628000 -s 2 -d 3 -p cbr -e 1020 -c 2 -a 0 -i 27 -k RTR
r -t 3.189814010 -s 3 -d 3 -p cbr -e 1020 -c 2 -a 0 -i 27 -k AGT
+ -t 3.240000000 -s 0 -d -1 -p cbr -e 1000 -c 2 -a 0 -i 28 -k AGT 
- -t 3.240000000 -s 0 -d -1 -p cbr -e 1000 -c 2 -a 0 -i 28 -k AGT
h -t 3.240000000 -s 0 -d -1 -p cbr -e 1000 -c 2 -a 0 -i 28 -k AGT
+ -t 3.240000000 -s 0 -d 1 -p cbr -e 1020 -c 2 -a 0 -i 28 -k RTR 
- -t 3.240000000 -s 0 -d 1 -p cbr -e 1020 -c 2 -a 0 -i 28 -k RTR
h -t 3.240000000 -s 0 -d 1 -p cbr -e 1020 -c 2 -a 0 -i 28 -k RTR
+ -t 3.249442000 -s 1 -d 2 -p cbr -e 1020 -c 2 -a 0 -i 28 -k RTR 
- -t 3.249442000 -s 1 -d 2 -p cbr -e 1020 -c 2 -a 0 -i 28 -k RTR
h -t 3.249442000 -s 1 -d 2 -p cbr -e 1020 -c 2 -a 0 -i 28 -k RTR
+ -t 3.259368000 -s 2 -d 3 -p cbr -e 1020 -c 2 -a 0 -i 28 -k RTR 
- -t 3.259368000 -s 2 -d 3 -p cbr -e 1020 -c 2 -a 0 -i 28 -k RTR
h -t 3.259368000 -s 2 -d 3 -p cbr -e 1020 -c 2 -a 0 -i 28 -k RTR
r -t 3.269394010 -s 3 -d 3 -p cbr -e 1020 -c 2 -a 0 -i 28 -k AGT
+ -t 3.320000000 -s 0 -d -1 -p cbr -e 1000 -c 2 -a 0 -i 29 -k AGT 
- -t 3.320000000 -s 0 -d -1 -p cbr -e 1000 -c 2 -a 0 -i 29 -k AGT
h -t 3.320000000 -s 0 -d -1 -p cbr -e 1000 -c 2 -a 0 -i 29 -k AGT
+ -t 3.320000000 -s 0 -d 1 -p cbr -e 1020 -c 2 -a 0 -i 29 -k RTR 
- -t 3.320000000 -s 0 -d 1 -p cbr -e 1020 -c 2 -a 0 -i 29 -k RTR
h -t 3.320000000 -s 0 -d 1 -p cbr -e 1020 -c 2 -a 0 -i 29 -k RTR
+ -t 3.329742000 -s 1 -d 2 -p cbr -e 1020 -c 2 -a 0 -i 29 -k RTR 
- -t 3.329742000 -s 1 -d 2 -p cbr -e 1020 -c 2 -a 0 -i 29 -k RTR
h -t 3.329742000 -s 1 -d 2 -p cbr -e 1020 -c 2 -a 0 -i 29 -k RTR
+ -t 3.339508000 -s 2 -d 3 -p cbr -e 1020 -c 2 -a 0 -i 29 -k RTR 
- -t 3.339508000 -s 2 -d 3 -p cbr -e 1020 -c 2 -a 0 -i 29 -k RTR
h -t 3.339508000 -s 2 -d 3 -p cbr -e 1020 -c 2 -a 0 -i 29 -k RTR
r -t 3.349654010 -s 3 -d 3 -p cbr -e 1020 -c 2 -a 0 -i 29 -k AGT
+ -t 3.400000000 -s 0 -d -1 -p cbr -e 1000 -c 2 -a 0 -i 30 -k AGT 
- -t 3.400000000 -s 0 -d -1 -p cbr -e 1000 -c 2 -a 0 -i 30 -k AGT
h -t 3.400000000 -s 0 -d -1 -p cbr -e 1000 -c 2 -a 0 -i 30 -k AGT
+ -t 3.400000000 -s 0 -d 1 -p cbr -e 1020 -c 2 -a 0 -i 30 -k RTR 
- -t 3.400000000 -s 0 -d 1 -p cbr -e 1020 -c 2 -a 0 -i 30 -k RTR
h -t 3.400000000 -s 0 -d 1 -p cbr -e 1020 -c 2 -a 0 -i 30 -k RTR
+ -t 3.409402000 -s 1 -d 2 -p cbr -e 1020 -c 2 -a 0 -i 30 -k RTR 
- -t 3.409402000 -s 1 -d 2 -p cbr -e 1020 -c 2 -a 0 -i 30 -k RTR
h -t 3.409402000 -s 1 -d 2 -p cbr -e 1020 -c 2 -a 0 -i 30 -k RTR
+ -t 3.419488000 -s 2 -d 3 -p cbr -e 1020 -c 2 -a 0 -i 30 -k RTR 
- -t 3.419488000 -s 2 -d 3 -p cbr -e 1020 -c 2 -a 0 -i 30 -k RTR
h -t 3.419488000 -s 2 -d 3 -p cbr -e 1020 -c 2 -a 0 -i 30 -k RTR
r -t 3.429254010 -s 3 -d 3 -p cbr -e 1020 -c 2 -a 0 -i 30 -k AGT