s 1.000000000 _0_ AGT  --- 0 cbr 1000 [0 0 0 0] ------- [0:0 3:0 32 0] [0] 0 0
r 1.000000000 _0_ RTR  --- 0 cbr 1000 [0 0 0 0] ------- [0:0 3:0 32 0] [0] 0 0
s 1.000000000 _0_ RTR  --- 0 AODV 48 [0 0 0 0] ------- [0:255 -1:255 30 0] [0x2 1 1 [3 0] [0 4]] (REQUEST)
r 1.001408374 _4_ RTR  --- 0 AODV 48 [0 ffffffff 0 800] ------- [0:255 -1:255 30 0] [0x2 1 1 [3 0] [0 4]] (REQUEST)
r 1.001408667 _1_ RTR  --- 0 AODV 48 [0 ffffffff 0 800] ------- [0:255 -1:255 30 0] [0x2 1 1 [3 0] [0 4]] (REQUEST)
s 1.001550421 _4_ RTR  --- 0 AODV 48 [0 ffffffff 0 800] ------- [4:255 -1:255 29 0] [0x2 2 1 [3 0] [0 4]] (REQUEST)
s 1.002289893 _1_ RTR  --- 0 AODV 48 [0 ffffffff 0 800] ------- [1:255 -1:255 29 0] [0x2 2 1 [3 0] [0 4]] (REQUEST)
r 1.002818795 _0_ RTR  --- 0 AODV 48 [0 ffffffff 4 800] ------- [4:255 -1:255 29 0] [0x2 2 1 [3 0] [0 4]] (REQUEST)
r 1.002818798 _1_ RTR  --- 0 AODV 48 [0 ffffffff 4 800] ------- [4:255 -1:255 29 0] [0x2 2 1 [3 0] [0 4]] (REQUEST)
r 1.003717175 _4_ RTR  --- 0 AODV 48 [0 ffffffff 1 800] ------- [1:255 -1:255 29 0] [0x2 2 1 [3 0] [0 4]] (REQUEST)
r 1.003717465 _2_ RTR  --- 0 AODV 48 [0 ffffffff 1 800] ------- [1:255 -1:255 29 0] [0x2 2 1 [3 0] [0 4]] (REQUEST)
r 1.003717465 _0_ RTR  --- 0 AODV 48 [0 ffffffff 1 800] ------- [1:255 -1:255 29 0] [0x2 2 1 [3 0] [0 4]] (REQUEST)
s 1.006063482 _2_ RTR  --- 0 AODV 48 [0 ffffffff 1 800] ------- [2:255 -1:255 28 0] [0x2 3 1 [3 0] [0 4]] (REQUEST)
r 1.006113482 _5_ RTR  --- 0 AODV 48 [0 ffffffff 2 800] ------- [2:255 -1:255 28 0] [0x2 3 1 [3 0] [0 4]] (REQUEST)
r 1.007371858 _5_ RTR  --- 0 AODV 48 [0 ffffffff 2 800] ------- [2:255 -1:255 28 0] [0x2 3 1 [3 0] [0 4]] (REQUEST)
r 1.007371951 _6_ RTR  --- 0 AODV 48 [0 ffffffff 2 800] ------- [2:255 -1:255 28 0] [0x2 3 1 [3 0] [0 4]] (REQUEST)
r 1.007372149 _1_ RTR  --- 0 AODV 48 [0 ffffffff 2 800] ------- [2:255 -1:255 28 0] [0x2 3 1 [3 0] [0 4]] (REQUEST)
r 1.007372152 _3_ RTR  --- 0 AODV 48 [0 ffffffff 2 800] ------- [2:255 -1:255 28 0] [0x2 3 1 [3 0] [0 4]] (REQUEST)
s 1.007372152 _3_ RTR  --- 0 AODV 44 [0 0 0 0] ------- [3:255 0:255 30 2] [0x4 1 [3 4] 10.000000] (REPLY)
s 1.009013405 _6_ RTR  --- 0 AODV 48 [0 ffffffff 2 800] ------- [6:255 -1:255 27 0] [0x2 4 1 [3 0] [0 4]] (REQUEST)
s 1.009204273 _5_ RTR  --- 0 AODV 48 [0 ffffffff 2 800] ------- [5:255 -1:255 27 0] [0x2 4 1 [3 0] [0 4]] (REQUEST)
r 1.011874585 _2_ RTR  --- 0 AODV 48 [0 ffffffff 5 800] ------- [5:255 -1:255 27 0] [0x2 4 1 [3 0] [0 4]] (REQUEST)
r 1.011874587 _3_ RTR  --- 0 AODV 48 [0 ffffffff 5 800] ------- [5:255 -1:255 27 0] [0x2 4 1 [3 0] [0 4]] (REQUEST)
r 1.011874709 _6_ RTR  --- 0 AODV 48 [0 ffffffff 5 800] ------- [5:255 -1:255 27 0] [0x2 4 1 [3 0] [0 4]] (REQUEST)
r 1.012833178 _3_ RTR  --- 0 AODV 48 [0 ffffffff 6 800] ------- [6:255 -1:255 27 0] [0x2 4 1 [3 0] [0 4]] (REQUEST)
r 1.012833179 _2_ RTR  --- 0 AODV 48 [0 ffffffff 6 800] ------- [6:255 -1:255 27 0] [0x2 4 1 [3 0] [0 4]] (REQUEST)
r 1.012833209 _5_ RTR  --- 0 AODV 48 [0 ffffffff 6 800] ------- [6:255 -1:255 27 0] [0x2 4 1 [3 0] [0 4]] (REQUEST)
r 1.014637189 _2_ RTR  --- 0 AODV 44 [13a 2 3 800] ------- [3:255 0:255 30 2] [0x4 1 [3 4] 10.000000] (REPLY)
f 1.014637189 _2_ RTR  --- 0 AODV 44 [13a 2 3 800] ------- [3:255 0:255 29 1] [0x4 2 [3 4] 10.000000] (REPLY)
r 1.019828855 _1_ RTR  --- 0 AODV 44 [13a 1 2 800] ------- [3:255 0:255 29 1] [0x4 2 [3 4] 10.000000] (REPLY)
f 1.019828855 _1_ RTR  --- 0 AODV 44 [13a 1 2 800] ------- [3:255 0:255 28 0] [0x4 3 [3 4] 10.000000] (REPLY)
r 1.025120522 _0_ RTR  --- 0 AODV 44 [13a 0 1 800] ------- [3:255 0:255 28 0] [0x4 3 [3 4] 10.000000] (REPLY)
s 1.025120522 _0_ RTR  --- 0 cbr 1020 [0 0 0 0] ------- [0:0 3:0 30 1] [0] 0 0
r 1.035086522 _1_ RTR  --- 0 cbr 1020 [13a 1 0 800] ------- [0:0 3:0 30 1] [0] 1 0
f 1.035086522 _1_ RTR  --- 0 cbr 1020 [13a 1 0 800] ------- [0:0 3:0 29 2] [0] 1 0
r 1.044832522 _2_ RTR  --- 0 cbr 1020 [13a 2 1 800] ------- [0:0 3:0 29 2] [0] 2 0
f 1.044832522 _2_ RTR  --- 0 cbr 1020 [13a 2 1 800] ------- [0:0 3:0 28 3] [0] 2 0
r 1.054578532 _3_ AGT  --- 0 cbr 1020 [13a 3 2 800] ------- [0:0 3:0 28 3] [0] 3 0
s 1.080000000 _0_ AGT  --- 1 cbr 1000 [0 0 0 0] ------- [0:0 3:0 32 0] [1] 0 0
r 1.080000000 _0_ RTR  --- 1 cbr 1000 [0 0 0 0] ------- [0:0 3:0 32 0] [1] 0 0
s 1.080000000 _0_ RTR  --- 1 cbr 1020 [0 0 0 0] ------- [0:0 3:0 30 1] [1] 0 0
r 1.089502000 _1_ RTR  --- 1 cbr 1020 [13a 1 0 800] ------- [0:0 3:0 30 1] [1] 1 0
f 1.089502000 _1_ RTR  --- 1 cbr 1020 [13a 1 0 800] ------- [0:0 3:0 29 2] [1] 1 0
r 1.099688000 _2_ RTR  --- 1 cbr 1020 [13a 2 1 800] ------- [0:0 3:0 29 2] [1] 2 0
f 1.099688000 _2_ RTR  --- 1 cbr 1020 [13a 2 1 800] ------- [0:0 3:0 28 3] [1] 2 0
r 1.109554010 _3_ AGT  --- 1 cbr 1020 [13a 3 2 800] ------- [0:0 3:0 28 3] [1] 3 0
s 1.160000000 _0_ AGT  --- 2 cbr 1000 [0 0 0 0] ------- [0:0 3:0 32 0] [2] 0 0
r 1.160000000 _0_ RTR  --- 2 cbr 1000 [0 0 0 0] ------- [0:0 3:0 32 0] [2] 0 0
s 1.160000000 _0_ RTR  --- 2 cbr 1020 [0 0 0 0] ------- [0:0 3:0 30 1] [2] 0 0
r 1.169522000 _1_ RTR  --- 2 cbr 1020 [13a 1 0 800] ------- [0:0 3:0 30 1] [2] 1 0
f 1.169522000 _1_ RTR  --- 2 cbr 1020 [13a 1 0 800] ------- [0:0 3:0 29 2] [2] 1 0
r 1.179528000 _2_ RTR  --- 2 cbr 1020 [13a 2 1 800] ------- [0:0 3:0 29 2] [2] 2 0
f 1.179528000 _2_ RTR  --- 2 cbr 1020 [13a 2 1 800] ------- [0:0 3:0 28 3] [2] 2 0
r 1.189474010 _3_ AGT  --- 2 cbr 1020 [13a 3 2 800] ------- [0:0 3:0 28 3] [2] 3 0
s 1.240000000 _0_ AGT  --- 3 cbr 1000 [0 0 0 0] ------- [0:0 3:0 32 0] [3] 0 0
r 1.240000000 _0_ RTR  --- 3 cbr 1000 [0 0 0 0] ------- [0:0 3:0 32 0] [3] 0 0
s 1.240000000 _0_ RTR  --- 3 cbr 1020 [0 0 0 0] ------- [0:0 3:0 30 1] [3] 0 0
r 1.249882000 _1_ RTR  --- 3 cbr 1020 [13a 1 0 800] ------- [0:0 3:0 30 1] [3] 1 0
f 1.249882000 _1_ RTR  --- 3 cbr 1020 [13a 1 0 800] ------- [0:0 3:0 29 2] [3] 1 0
r 1.259548000 _2_ RTR  --- 3 cbr 1020 [13a 2 1 800] ------- [0:0 3:0 29 2] [3] 2 0
f 1.259548000 _2_ RTR  --- 3 cbr 1020 [13a 2 1 800] ------- [0:0 3:0 28 3] [3] 2 0
r 1.269534010 _3_ AGT  --- 3 cbr 1020 [13a 3 2 800] ------- [0:0 3:0 28 3] [3] 3 0
s 1.320000000 _0_ AGT  --- 4 cbr 1000 [0 0 0 0] ------- [0:0 3:0 32 0] [4] 0 0
r 1.320000000 _0_ RTR  --- 4 cbr 1000 [0 0 0 0] ------- [0:0 3:0 32 0] [4] 0 0
s 1.320000000 _0_ RTR  --- 4 cbr 1020 [0 0 0 0] ------- [0:0 3:0 30 1] [4] 0 0
r 1.329482000 _1_ RTR  --- 4 cbr 1020 [13a 1 0 800] ------- [0:0 3:0 30 1] [4] 1 0
f 1.329482000 _1_ RTR  --- 4 cbr 1020 [13a 1 0 800] ------- [0:0 3:0 29 2] [4] 1 0
r 1.339448000 _2_ RTR  --- 4 cbr 1020 [13a 2 1 800] ------- [0:0 3:0 29 2] [4] 2 0
f 1.339448000 _2_ RTR  --- 4 cbr 1020 [13a 2 1 800] ------- [0:0 3:0 28 3] [4] 2 0
r 1.349354010 _3_ AGT  --- 4 cbr 1020 [13a 3 2 800] ------- [0:0 3:0 28 3] [4] 3 0
s 1.400000000 _0_ AGT  --- 5 cbr 1000 [0 0 0 0] ------- [0:0 3:0 32 0] [5] 0 0
r 1.400000000 _0_ RTR  --- 5 cbr 1000 [0 0 0 0] ------- [0:0 3:0 32 0] [5] 0 0
s 1.400000000 _0_ RTR  --- 5 cbr 1020 [0 0 0 0] ------- [0:0 3:0 30 1] [5] 0 0
r 1.409422000 _1_ RTR  --- 5 cbr 1020 [13a 1 0 800] ------- [0:0 3:0 30 1] [5] 1 0
f 1.409422000 _1_ RTR  --- 5 cbr 1020 [13a 1 0 800] ------- [0:0 3:0 29 2] [5] 1 0
r 1.419568000 _2_ RTR  --- 5 cbr 1020 [13a 2 1 800] ------- [0:0 3:0 29 2] [5] 2 0
f 1.419568000 _2_ RTR  --- 5 cbr 1020 [13a 2 1 800] ------- [0:0 3:0 28 3] [5] 2 0
r 1.429354010 _3_ AGT  --- 5 cbr 1020 [13a 3 2 800] ------- [0:0 3:0 28 3] [5] 3 0
s 1.480000000 _0_ AGT  --- 6 cbr 1000 [0 0 0 0] ------- [0:0 3:0 32 0] [6] 0 0
r 1.480000000 _0_ RTR  --- 6 cbr 1000 [0 0 0 0] ------- [0:0 3:0 32 0] [6] 0 0
s 1.480000000 _0_ RTR  --- 6 cbr 1020 [0 0 0 0] ------- [0:0 3:0 30 1] [6] 0 0
r 1.489862000 _1_ RTR  --- 6 cbr 1020 [13a 1 0 800] ------- [0:0 3:0 30 1] [6] 1 0
f 1.489862000 _1_ RTR  --- 6 cbr 1020 [13a 1 0 800] ------- [0:0 3:0 29 2] [6] 1 0
r 1.499648000 _2_ RTR  --- 6 cbr 1020 [13a 2 1 800] ------- [0:0 3:0 29 2] [6] 2 0
f 1.499648000 _2_ RTR  --- 6 cbr 1020 [13a 2 1 800] ------- [0:0 3:0 28 3] [6] 2 0
r 1.509414010 _3_ AGT  --- 6 cbr 1020 [13a 3 2 800] ------- [0:0 3:0 28 3] [6] 3 0
s 1.560000000 _0_ AGT  --- 7 cbr 1000 [0 0 0 0] ------- [0:0 3:0 32 0] [7] 0 0
r 1.560000000 _0_ RTR  --- 7 cbr 1000 [0 0 0 0] ------- [0:0 3:0 32 0] [7] 0 0
s 1.560000000 _0_ RTR  --- 7 cbr 1020 [0 0 0 0] ------- [0:0 3:0 30 1] [7] 0 0
r 1.569602000 _1_ RTR  --- 7 cbr 1020 [13a 1 0 800] ------- [0:0 3:0 30 1] [7] 1 0
f 1.569602000 _1_ RTR  --- 7 cbr 1020 [13a 1 0 800] ------- [0:0 3:0 29 2] [7] 1 0
r 1.579328000 _2_ RTR  --- 7 cbr 1020 [13a 2 1 800] ------- [0:0 3:0 29 2] [7] 2 0
f 1.579328000 _2_ RTR  --- 7 cbr 1020 [13a 2 1 800] ------- [0:0 3:0 28 3] [7] 2 0
r 1.589594010 _3_ AGT  --- 7 cbr 1020 [13a 3 2 800] ------- [0:0 3:0 28 3] [7] 3 0
s 1.640000000 _0_ AGT  --- 8 cbr 1000 [0 0 0 0] ------- [0:0 3:0 32 0] [8] 0 0
r 1.640000000 _0_ RTR  --- 8 cbr 1000 [0 0 0 0] ------- [0:0 3:0 32 0] [8] 0 0
s 1.640000000 _0_ RTR  --- 8 cbr 1020 [0 0 0 0] ------- [0:0 3:0 30 1] [8] 0 0
r 1.649982000 _1_ RTR  --- 8 cbr 1020 [13a 1 0 800] ------- [0:0 3:0 30 1] [8] 1 0
f 1.649982000 _1_ RTR  --- 8 cbr 1020 [13a 1 0 800] ------- [0:0 3:0 29 2] [8] 1 0
r 1.659768000 _2_ RTR  --- 8 cbr 1020 [13a 2 1 800] ------- [0:0 3:0 29 2] [8] 2 0
f 1.659768000 _2_ RTR  --- 8 cbr 1020 [13a 2 1 800] ------- [0:0 3:0 28 3] [8] 2 0
r 1.669874010 _3_ AGT  --- 8 cbr 1020 [13a 3 2 800] ------- [0:0 3:0 28 3] [8] 3 0
s 1.720000000 _0_ AGT  --- 9 cbr 1000 [0 0 0 0] ------- [0:0 3:0 32 0] [9] 0 0
r 1.720000000 _0_ RTR  --- 9 cbr 1000 [0 0 0 0] ------- [0:0 3:0 32 0] [9] 0 0
s 1.720000000 _0_ RTR  --- 9 cbr 1020 [0 0 0 0] ------- [0:0 3:0 30 1] [9] 0 0
r 1.729702000 _1_ RTR  --- 9 cbr 1020 [13a 1 0 800] ------- [0:0 3:0 30 1] [9] 1 0
f 1.729702000 _1_ RTR  --- 9 cbr 1020 [13a 1 0 800] ------- [0:0 3:0 29 2] [9] 1 0
r 1.739668000 _2_ RTR  --- 9 cbr 1020 [13a 2 1 800] ------- [0:0 3:0 29 2] [9] 2 0
f 1.739668000 _2_ RTR  --- 9 cbr 1020 [13a 2 1 800] ------- [0:0 3:0 28 3] [9] 2 0
r 1.749374010 _3_ AGT  --- 9 cbr 1020 [13a 3 2 800] ------- [0:0 3:0 28 3] [9] 3 0
s 1.800000000 _0_ AGT  --- 10 cbr 1000 [0 0 0 0] ------- [0:0 3:0 32 0] [10] 0 0
r 1.800000000 _0_ RTR  --- 10 cbr 1000 [0 0 0 0] ------- [0:0 3:0 32 0] [10] 0 0
s 1.800000000 _0_ RTR  --- 10 cbr 1020 [0 0 0 0] ------- [0:0 3:0 30 1] [10] 0 0
r 1.809582000 _1_ RTR  --- 10 cbr 1020 [13a 1 0 800] ------- [0:0 3:0 30 1] [10] 1 0
f 1.809582000 _1_ RTR  --- 10 cbr 1020 [13a 1 0 800] ------- [0:0 3:0 29 2] [10] 1 0
r 1.819408000 _2_ RTR  --- 10 cbr 1020 [13a 2 1 800] ------- [0:0 3:0 29 2] [10] 2 0
f 1.819408000 _2_ RTR  --- 10 cbr 1020 [13a 2 1 800] ------- [0:0 3:0 28 3] [10] 2 0
r 1.829474010 _3_ AGT  --- 10 cbr 1020 [13a 3 2 800] ------- [0:0 3:0 28 3] [10] 3 0
s 1.880000000 _0_ AGT  --- 11 cbr 1000 [0 0 0 0] ------- [0:0 3:0 32 0] [11] 0 0
r 1.880000000 _0_ RTR  --- 11 cbr 1000 [0 0 0 0] ------- [0:0 3:0 32 0] [11] 0 0
s 1.880000000 _0_ RTR  --- 11 cbr 1020 [0 0 0 0] ------- [0:0 3:0 30 1] [11] 0 0
r 1.889622000 _1_ RTR  --- 11 cbr 1020 [13a 1 0 800] ------- [0:0 3:0 30 1] [11] 1 0
f 1.889622000 _1_ RTR  --- 11 cbr 1020 [13a 1 0 800] ------- [0:0 3:0 29 2] [11] 1 0
r 1.899288000 _2_ RTR  --- 11 cbr 1020 [13a 2 1 800] ------- [0:0 3:0 29 2] [11] 2 0
f 1.899288000 _2_ RTR  --- 11 cbr 1020 [13a 2 1 800] ------- [0:0 3:0 28 3] [11] 2 0
r 1.909314010 _3_ AGT  --- 11 cbr 1020 [13a 3 2 800] ------- [0:0 3:0 28 3] [11] 3 0
s 1.960000000 _0_ AGT  --- 12 cbr 1000 [0 0 0 0] ------- [0:0 3:0 32 0] [12] 0 0
r 1.960000000 _0_ RTR  --- 12 cbr 1000 [0 0 0 0] ------- [0:0 3:0 32 0] [12] 0 0
s 1.960000000 _0_ RTR  --- 12 cbr 1020 [0 0 0 0] ------- [0:0 3:0 30 1] [12] 0 0
r 1.969902000 _1_ RTR  --- 12 cbr 1020 [13a 1 0 800] ------- [0:0 3:0 30 1] [12] 1 0
f 1.969902000 _1_ RTR  --- 12 cbr 1020 [13a 1 0 800] ------- [0:0 3:0 29 2] [12] 1 0
r 1.979888000 _2_ RTR  --- 12 cbr 1020 [13a 2 1 800] ------- [0:0 3:0 29 2] [12] 2 0
f 1.979888000 _2_ RTR  --- 12 cbr 1020 [13a 2 1 800] ------- [0:0 3:0 28 3] [12] 2 0
r 1.989574010 _3_ AGT  --- 12 cbr 1020 [13a 3 2 800] ------- [0:0 3:0 28 3] [12] 3 0
s 2.040000000 _0_ AGT  --- 13 cbr 1000 [0 0 0 0] ------- [0:0 3:0 32 0] [13] 0 0
r 2.040000000 _0_ RTR  --- 13 cbr 1000 [0 0 0 0] ------- [0:0 3:0 32 0] [13] 0 0
s 2.040000000 _0_ RTR  --- 13 cbr 1020 [0 0 0 0] ------- [0:0 3:0 30 1] [13] 0 0
r 2.049402000 _1_ RTR  --- 13 cbr 1020 [13a 1 0 800] ------- [0:0 3:0 30 1] [13] 1 0
f 2.049402000 _1_ RTR  --- 13 cbr 1020 [13a 1 0 800] ------- [0:0 3:0 29 2] [13] 1 0
r 2.059128000 _2_ RTR  --- 13 cbr 1020 [13a 2 1 800] ------- [0:0 3:0 29 2] [13] 2 0
f 2.059128000 _2_ RTR  --- 13 cbr 1020 [13a 2 1 800] ------- [0:0 3:0 28 3] [13] 2 0
r 2.069394010 _3_ AGT  --- 13 cbr 1020 [13a 3 2 800] ------- [0:0 3:0 28 3] [13] 3 0
s 2.120000000 _0_ AGT  --- 14 cbr 1000 [0 0 0 0] ------- [0:0 3:0 32 0] [14] 0 0
r 2.120000000 _0_ RTR  --- 14 cbr 1000 [0 0 0 0] ------- [0:0 3:0 32 0] [14] 0 0
s 2.120000000 _0_ RTR  --- 14 cbr 1020 [0 0 0 0] ------- [0:0 3:0 30 1] [14] 0 0
r 2.129422000 _1_ RTR  --- 14 cbr 1020 [13a 1 0 800] ------- [0:0 3:0 30 1] [14] 1 0
f 2.129422000 _1_ RTR  --- 14 cbr 1020 [13a 1 0 800] ------- [0:0 3:0 29 2] [14] 1 0
r 2.139148000 _2_ RTR  --- 14 cbr 1020 [13a 2 1 800] ------- [0:0 3:0 29 2] [14] 2 0
f 2.139148000 _2_ RTR  --- 14 cbr 1020 [13a 2 1 800] ------- [0:0 3:0 28 3] [14] 2 0
r 2.148834010 _3_ AGT  --- 14 cbr 1020 [13a 3 2 800] ------- [0:0 3:0 28 3] [14] 3 0
s 2.200000000 _0_ AGT  --- 15 cbr 1000 [0 0 0 0] ------- [0:0 3:0 32 0] [15] 0 0
r 2.200000000 _0_ RTR  --- 15 cbr 1000 [0 0 0 0] ------- [0:0 3:0 32 0] [15] 0 0
s 2.200000000 _0_ RTR  --- 15 cbr 1020 [0 0 0 0] ------- [0:0 3:0 30 1] [15] 0 0
r 2.209842000 _1_ RTR  --- 15 cbr 1020 [13a 1 0 800] ------- [0:0 3:0 30 1] [15] 1 0
f 2.209842000 _1_ RTR  --- 15 cbr 1020 [13a 1 0 800] ------- [0:0 3:0 29 2] [15] 1 0
r 2.219888000 _2_ RTR  --- 15 cbr 1020 [13a 2 1 800] ------- [0:0 3:0 29 2] [15] 2 0
f 2.219888000 _2_ RTR  --- 15 cbr 1020 [13a 2 1 800] ------- [0:0 3:0 28 3] [15] 2 0
r 2.229874010 _3_ AGT  --- 15 cbr 1020 [13a 3 2 800] ------- [0:0 3:0 28 3] [15] 3 0
s 2.280000000 _0_ AGT  --- 16 cbr 1000 [0 0 0 0] ------- [0:0 3:0 32 0] [16] 0 0
r 2.280000000 _0_ RTR  --- 16 cbr 1000 [0 0 0 0] ------- [0:0 3:0 32 0] [16] 0 0
s 2.280000000 _0_ RTR  --- 16 cbr 1020 [0 0 0 0] ------- [0:0 3:0 30 1] [16] 0 0
r 2.289582000 _1_ RTR  --- 16 cbr 1020 [13a 1 0 800] ------- [0:0 3:0 30 1] [16] 1 0
f 2.289582000 _1_ RTR  --- 16 cbr 1020 [13a 1 0 800] ------- [0:0 3:0 29 2] [16] 1 0
r 2.299388000 _2_ RTR  --- 16 cbr 1020 [13a 2 1 800] ------- [0:0 3:0 29 2] [16] 2 0
f 2.299388000 _2_ RTR  --- 16 cbr 1020 [13a 2 1 800] ------- [0:0 3:0 28 3] [16] 2 0
r 2.309054010 _3_ AGT  --- 16 cbr 1020 [13a 3 2 800] ------- [0:0 3:0 28 3] [16] 3 0
s 2.360000000 _0_ AGT  --- 17 cbr 1000 [0 0 0 0] ------- [0:0 3:0 32 0] [17] 0 0
r 2.360000000 _0_ RTR  --- 17 cbr 1000 [0 0 0 0] ------- [0:0 3:0 32 0] [17] 0 0
s 2.360000000 _0_ RTR  --- 17 cbr 1020 [0 0 0 0] ------- [0:0 3:0 30 1] [17] 0 0
r 2.369942000 _1_ RTR  --- 17 cbr 1020 [13a 1 0 800] ------- [0:0 3:0 30 1] [17] 1 0
f 2.369942000 _1_ RTR  --- 17 cbr 1020 [13a 1 0 800] ------- [0:0 3:0 29 2] [17] 1 0
r 2.380168000 _2_ RTR  --- 17 cbr 1020 [13a 2 1 800] ------- [0:0 3:0 29 2] [17] 2 0
f 2.380168000 _2_ RTR  --- 17 cbr 1020 [13a 2 1 800] ------- [0:0 3:0 28 3] [17] 2 0
r 2.390414010 _3_ AGT  --- 17 cbr 1020 [13a 3 2 800] ------- [0:0 3:0 28 3] [17] 3 0
s 2.440000000 _0_ AGT  --- 18 cbr 1000 [0 0 0 0] ------- [0:0 3:0 32 0] [18] 0 0
r 2.440000000 _0_ RTR  --- 18 cbr 1000 [0 0 0 0] ------- [0:0 3:0 32 0] [18] 0 0
s 2.440000000 _0_ RTR  --- 18 cbr 1020 [0 0 0 0] ------- [0:0 3:0 30 1] [18] 0 0
r 2.449542000 _1_ RTR  --- 18 cbr 1020 [13a 1 0 800] ------- [0:0 3:0 30 1] [18] 1 0
f 2.449542000 _1_ RTR  --- 18 cbr 1020 [13a 1 0 800] ------- [0:0 3:0 29 2] [18] 1 0
r 2.459448000 _2_ RTR  --- 18 cbr 1020 [13a 2 1 800] ------- [0:0 3:0 29 2] [18] 2 0
f 2.459448000 _2_ RTR  --- 18 cbr 1020 [13a 2 1 800] ------- [0:0 3:0 28 3] [18] 2 0
r 2.469214010 _3_ AGT  --- 18 cbr 1020 [13a 3 2 800] ------- [0:0 3:0 28 3] [18] 3 0
s 2.520000000 _0_ AGT  --- 19 cbr 1000 [0 0 0 0] ------- [0:0 3:0 32 0] [19] 0 0
r 2.520000000 _0_ RTR  --- 19 cbr 1000 [0 0 0 0] ------- [0:0 3:0 32 0] [19] 0 0
s 2.520000000 _0_ RTR  --- 19 cbr 1020 [0 0 0 0] ------- [0:0 3:0 30 1] [19] 0 0
r 2.529782000 _1_ RTR  --- 19 cbr 1020 [13a 1 0 800] ------- [0:0 3:0 30 1] [19] 1 0
f 2.529782000 _1_ RTR  --- 19 cbr 1020 [13a 1 0 800] ------- [0:0 3:0 29 2] [19] 1 0
r 2.539948000 _2_ RTR  --- 19 cbr 1020 [13a 2 1 800] ------- [0:0 3:0 29 2] [19] 2 0
f 2.539948000 _2_ RTR  --- 19 cbr 1020 [13a 2 1 800] ------- [0:0 3:0 28 3] [19] 2 0
r 2.549614010 _3_ AGT  --- 19 cbr 1020 [13a 3 2 800] ------- [0:0 3:0 28 3] [19] 3 0
s 2.600000000 _0_ AGT  --- 20 cbr 1000 [0 0 0 0] ------- [0:0 3:0 32 0] [20] 0 0
r 2.600000000 _0_ RTR  --- 20 cbr 1000 [0 0 0 0] ------- [0:0 3:0 32 0] [20] 0 0
s 2.600000000 _0_ RTR  --- 20 cbr 1020 [0 0 0 0] ------- [0:0 3:0 30 1] [20] 0 0
r 2.609562000 _1_ RTR  --- 20 cbr 1020 [13a 1 0 800] ------- [0:0 3:0 30 1] [20] 1 0
f 2.609562000 _1_ RTR  --- 20 cbr 1020 [13a 1 0 800] ------- [0:0 3:0 29 2] [20] 1 0
r 2.619728000 _2_ RTR  --- 20 cbr 1020 [13a 2 1 800] ------- [0:0 3:0 29 2] [20] 2 0
f 2.619728000 _2_ RTR  --- 20 cbr 1020 [13a 2 1 800] ------- [0:0 3:0 28 3] [20] 2 0
r 2.629534010 _3_ AGT  --- 20 cbr 1020 [13a 3 2 800] ------- [0:0 3:0 28 3] [20] 3 0
s 2.680000000 _0_ AGT  --- 21 cbr 1000 [0 0 0 0] ------- [0:0 3:0 32 0] [21] 0 0
r 2.680000000 _0_ RTR  --- 21 cbr 1000 [0 0 0 0] ------- [0:0 3:0 32 0] [21] 0 0
s 2.680000000 _0_ RTR  --- 21 cbr 1020 [0 0 0 0] ------- [0:0 3:0 30 1] [21] 0 0
r 2.689442000 _1_ RTR  --- 21 cbr 1020 [13a 1 0 800] ------- [0:0 3:0 30 1] [21] 1 0
f 2.689442000 _1_ RTR  --- 21 cbr 1020 [13a 1 0 800] ------- [0:0 3:0 29 2] [21] 1 0
r 2.699588000 _2_ RTR  --- 21 cbr 1020 [13a 2 1 800] ------- [0:0 3:0 29 2] [21] 2 0
f 2.699588000 _2_ RTR  --- 21 cbr 1020 [13a 2 1 800] ------- [0:0 3:0 28 3] [21] 2 0
r 2.709254010 _3_ AGT  --- 21 cbr 1020 [13a 3 2 800] ------- [0:0 3:0 28 3] [21] 3 0
s 2.760000000 _0_ AGT  --- 22 cbr 1000 [0 0 0 0] ------- [0:0 3:0 32 0] [22] 0 0
r 2.760000000 _0_ RTR  --- 22 cbr 1000 [0 0 0 0] ------- [0:0 3:0 32 0] [22] 0 0
s 2.760000000 _0_ RTR  --- 22 cbr 1020 [0 0 0 0] ------- [0:0 3:0 30 1] [22] 0 0
r 2.769702000 _1_ RTR  --- 22 cbr 1020 [13a 1 0 800] ------- [0:0 3:0 30 1] [22] 1 0
f 2.769702000 _1_ RTR  --- 22 cbr 1020 [13a 1 0 800] ------- [0:0 3:0 29 2] [22] 1 0
r 2.779708000 _2_ RTR  --- 22 cbr 1020 [13a 2 1 800] ------- [0:0 3:0 29 2] [22] 2 0
f 2.779708000 _2_ RTR  --- 22 cbr 1020 [13a 2 1 800] ------- [0:0 3:0 28 3] [22] 2 0
r 2.789854010 _3_ AGT  --- 22 cbr 1020 [13a 3 2 800] ------- [0:0 3:0 28 3] [22] 3 0
s 2.840000000 _0_ AGT  --- 23 cbr 1000 [0 0 0 0] ------- [0:0 3:0 32 0] [23] 0 0
r 2.840000000 _0_ RTR  --- 23 cbr 1000 [0 0 0 0] ------- [0:0 3:0 32 0] [23] 0 0
s 2.840000000 _0_ RTR  --- 23 cbr 1020 [0 0 0 0] ------- [0:0 3:0 30 1] [23] 0 0
r 2.849902000 _1_ RTR  --- 23 cbr 1020 [13a 1 0 800] ------- [0:0 3:0 30 1] [23] 1 0
f 2.849902000 _1_ RTR  --- 23 cbr 1020 [13a 1 0 800] ------- [0:0 3:0 29 2] [23] 1 0
r 2.859648000 _2_ RTR  --- 23 cbr 1020 [13a 2 1 800] ------- [0:0 3:0 29 2] [23] 2 0
f 2.859648000 _2_ RTR  --- 23 cbr 1020 [13a 2 1 800] ------- [0:0 3:0 28 3] [23] 2 0
r 2.869314010 _3_ AGT  --- 23 cbr 1020 [13a 3 2 800] ------- [0:0 3:0 28 3] [23] 3 0
s 2.920000000 _0_ AGT  --- 24 cbr 1000 [0 0 0 0] ------- [0:0 3:0 32 0] [24] 0 0
r 2.920000000 _0_ RTR  --- 24 cbr 1000 [0 0 0 0] ------- [0:0 3:0 32 0] [24] 0 0
s 2.920000000 _0_ RTR  --- 24 cbr 1020 [0 0 0 0] ------- [0:0 3:0 30 1] [24] 0 0
r 2.929782000 _1_ RTR  --- 24 cbr 1020 [13a 1 0 800] ------- [0:0 3:0 30 1] [24] 1 0
f 2.929782000 _1_ RTR  --- 24 cbr 1020 [13a 1 0 800] ------- [0:0 3:0 29 2] [24] 1 0
r 2.939508000 _2_ RTR  --- 24 cbr 1020 [13a 2 1 800] ------- [0:0 3:0 29 2] [24] 2 0
f 2.939508000 _2_ RTR  --- 24 cbr 1020 [13a 2 1 800] ------- [0:0 3:0 28 3] [24] 2 0
r 2.949574010 _3_ AGT  --- 24 cbr 1020 [13a 3 2 800] ------- [0:0 3:0 28 3] [24] 3 0
s 3.000000000 _0_ AGT  --- 25 cbr 1000 [0 0 0 0] ------- [0:0 3:0 32 0] [25] 0 0
r 3.000000000 _0_ RTR  --- 25 cbr 1000 [0 0 0 0] ------- [0:0 3:0 32 0] [25] 0 0
s 3.000000000 _0_ RTR  --- 25 cbr 1020 [0 0 0 0] ------- [0:0 3:0 30 1] [25] 0 0
r 3.009422000 _1_ RTR  --- 25 cbr 1020 [13a 1 0 800] ------- [0:0 3:0 30 1] [25] 1 0
f 3.009422000 _1_ RTR  --- 25 cbr 1020 [13a 1 0 800] ------- [0:0 3:0 29 2] [25] 1 0
r 3.019088000 _2_ RTR  --- 25 cbr 1020 [13a 2 1 800] ------- [0:0 3:0 29 2] [25] 2 0
f 3.019088000 _2_ RTR  --- 25 cbr 1020 [13a 2 1 800] ------- [0:0 3:0 28 3] [25] 2 0
r 3.029314010 _3_ AGT  --- 25 cbr 1020 [13a 3 2 800] ------- [0:0 3:0 28 3] [25] 3 0
s 3.080000000 _0_ AGT  --- 26 cbr 1000 [0 0 0 0] ------- [0:0 3:0 32 0] [26] 0 0
r 3.080000000 _0_ RTR  --- 26 cbr 1000 [0 0 0 0] ------- [0:0 3:0 32 0] [26] 0 0
s 3.080000000 _0_ RTR  --- 26 cbr 1020 [0 0 0 0] ------- [0:0 3:0 30 1] [26] 0 0
r 3.089562000 _1_ RTR  --- 26 cbr 1020 [13a 1 0 800] ------- [0:0 3:0 30 1] [26] 1 0
f 3.089562000 _1_ RTR  --- 26 cbr 1020 [13a 1 0 800] ------- [0:0 3:0 29 2] [26] 1 0
r 3.099588000 _2_ RTR  --- 26 cbr 1020 [13a 2 1 800] ------- [0:0 3:0 29 2] [26] 2 0
f 3.099588000 _2_ RTR  --- 26 cbr 1020 [13a 2 1 800] ------- [0:0 3:0 28 3] [26] 2 0
r 3.109474010 _3_ AGT  --- 26 cbr 1020 [13a 3 2 800] ------- [0:0 3:0 28 3] [26] 3 0
s 3.160000000 _0_ AGT  --- 27 cbr 1000 [0 0 0 0] ------- [0:0 3:0 32 0] [27] 0 0
r 3.160000000 _0_ RTR  --- 27 cbr 1000 [0 0 0 0] ------- [0:0 3:0 32 0] [27] 0 0
s 3.160000000 _0_ RTR  --- 27 cbr 1020 [0 0 0 0] ------- [0:0 3:0 30 1] [27] 0 0
r 3.169502000 _1_ RTR  --- 27 cbr 1020 [13a 1 0 800] ------- [0:0 3:0 30 1] [27] 1 0
f 3.169502000 _1_ RTR  --- 27 cbr 1020 [13a 1 0 800] ------- [0:0 3:0 29 2] [27] 1 0
r 3.179628000 _2_ RTR  --- 27 cbr 1020 [13a 2 1 800] ------- [0:0 3:0 29 2] [27] 2 0
f 3.179628000 _2_ RTR  --- 27 cbr 1020 [13a 2 1 800] ------- [0:0 3:0 28 3] [27] 2 0
r 3.189814010 _3_ AGT  --- 27 cbr 1020 [13a 3 2 800] ------- [0:0 3:0 28 3] [27] 3 0
s 3.240000000 _0_ AGT  --- 28 cbr 1000 [0 0 0 0] ------- [0:0 3:0 32 0] [28] 0 0
r 3.240000000 _0_ RTR  --- 28 cbr 1000 [0 0 0 0] ------- [0:0 3:0 32 0] [28] 0 0
s 3.240000000 _0_ RTR  --- 28 cbr 1020 [0 0 0 0] ------- [0:0 3:0 30 1] [28] 0 0
r 3.249442000 _1_ RTR  --- 28 cbr 1020 [13a 1 0 800] ------- [0:0 3:0 30 1] [28] 1 0
f 3.249442000 _1_ RTR  --- 28 cbr 1020 [13a 1 0 800] ------- [0:0 3:0 29 2] [28] 1 0
r 3.259368000 _2_ RTR  --- 28 cbr 1020 [13a 2 1 800] ------- [0:0 3:0 29 2] [28] 2 0
f 3.259368000 _2_ RTR  --- 28 cbr 1020 [13a 2 1 800] ------- [0:0 3:0 28 3] [28] 2 0
r 3.269394010 _3_ AGT  --- 28 cbr 1020 [13a 3 2 800] ------- [0:0 3:0 28 3] [28] 3 0
s 3.320000000 _0_ AGT  --- 29 cbr 1000 [0 0 0 0] ------- [0:0 3:0 32 0] [29] 0 0
r 3.320000000 _0_ RTR  --- 29 cbr 1000 [0 0 0 0] ------- [0:0 3:0 32 0] [29] 0 0
s 3.320000000 _0_ RTR  --- 29 cbr 1020 [0 0 0 0] ------- [0:0 3:0 30 1] [29] 0 0
r 3.329742000 _1_ RTR  --- 29 cbr 1020 [13a 1 0 800] ------- [0:0 3:0 30 1] [29] 1 0
f 3.329742000 _1_ RTR  --- 29 cbr 1020 [13a 1 0 800] ------- [0:0 3:0 29 2] [29] 1 0
r 3.339508000 _2_ RTR  --- 29 cbr 1020 [13a 2 1 800] ------- [0:0 3:0 29 2] [29] 2 0
f 3.339508000 _2_ RTR  --- 29 cbr 1020 [13a 2 1 800] ------- [0:0 3:0 28 3] [29] 2 0
r 3.349654010 _3_ AGT  --- 29 cbr 1020 [13a 3 2 800] ------- [0:0 3:0 28 3] [29] 3 0
s 3.400000000 _0_ AGT  --- 30 cbr 1000 [0 0 0 0] ------- [0:0 3:0 32 0] [30] 0 0
r 3.400000000 _0_ RTR  --- 30 cbr 1000 [0 0 0 0] ------- [0:0 3:0 32 0] [30] 0 0
s 3.400000000 _0_ RTR  --- 30 cbr 1020 [0 0 0 0] ------- [0:0 3:0 30 1] [30] 0 0
r 3.409402000 _1_ RTR  --- 30 cbr 1020 [13a 1 0 800] ------- [0:0 3:0 30 1] [30] 1 0
f 3.409402000 _1_ RTR  --- 30 cbr 1020 [13a 1 0 800] ------- [0:0 3:0 29 2] [30] 1 0
r 3.419488000 _2_ RTR  --- 30 cbr 1020 [13a 2 1 800] ------- [0:0 3:0 29 2] [30] 2 0
f 3.419488000 _2_ RTR  --- 30 cbr 1020 [13a 2 1 800] ------- [0:0 3:0 28 3] [30] 2 0
r 3.429254010 _3_ AGT  --- 30 cbr 1020 [13a 3 2 800] ------- [0:0 3:0 28 3] [30] 3 0
s 3.480000000 _0_ AGT  --- 31 cbr 1000 [0 0 0 0] ------- [0:0 3:0 32 0] [31] 0 0
r 3.480000000 _0_ RTR  --- 31 cbr 1000 [0 0 0 0] ------- [0:0 3:0 32 0] [31] 0 0
s 3.480000000 _0_ RTR  --- 31 cbr 1020 [0 0 0 0] ------- [0:0 3:0 30 1] [31] 0 0
r 3.489422000 _1_ RTR  --- 31 cbr 1020 [13a 1 0 800] ------- [0:0 3:0 30 1] [31] 1 0
f 3.489422000 _1_ RTR  --- 31 cbr 1020 [13a 1 0 800] ------- [0:0 3:0 29 2] [31] 1 0
r 3.499608000 _2_ RTR  --- 31 cbr 1020 [13a 2 1 800] ------- [0:0 3:0 29 2] [31] 2 0
f 3.499608000 _2_ RTR  --- 31 cbr 1020 [13a 2 1 800] ------- [0:0 3:0 28 3] [31] 2 0
r 3.509754010 _3_ AGT  --- 31 cbr 1020 [13a 3 2 800] ------- [0:0 3:0 28 3] [31] 3 0
s 3.560000000 _0_ AGT  --- 32 cbr 1000 [0 0 0 0] ------- [0:0 3:0 32 0] [32] 0 0
r 3.560000000 _0_ RTR  --- 32 cbr 1000 [0 0 0 0] ------- [0:0 3:0 32 0] [32] 0 0
s 3.560000000 _0_ RTR  --- 32 cbr 1020 [0 0 0 0] ------- [0:0 3:0 30 1] [32] 0 0
r 3.569562000 _1_ RTR  --- 32 cbr 1020 [13a 1 0 800] ------- [0:0 3:0 30 1] [32] 1 0
f 3.569562000 _1_ RTR  --- 32 cbr 1020 [13a 1 0 800] ------- [0:0 3:0 29 2] [32] 1 0
r 3.579248000 _2_ RTR  --- 32 cbr 1020 [13a 2 1 800] ------- [0:0 3:0 29 2] [32] 2 0
f 3.579248000 _2_ RTR  --- 32 cbr 1020 [13a 2 1 800] ------- [0:0 3:0 28 3] [32] 2 0
r 3.589134010 _3_ AGT  --- 32 cbr 1020 [13a 3 2 800] ------- [0:0 3:0 28 3] [32] 3 0
s 3.640000000 _0_ AGT  --- 33 cbr 1000 [0 0 0 0] ------- [0:0 3:0 32 0] [33] 0 0
r 3.640000000 _0_ RTR  --- 33 cbr 1000 [0 0 0 0] ------- [0:0 3:0 32 0] [33] 0 0
s 3.640000000 _0_ RTR  --- 33 cbr 1020 [0 0 0 0] ------- [0:0 3:0 30 1] [33] 0 0
r 3.649622000 _1_ RTR  --- 33 cbr 1020 [13a 1 0 800] ------- [0:0 3:0 30 1] [33] 1 0
f 3.649622000 _1_ RTR  --- 33 cbr 1020 [13a 1 0 800] ------- [0:0 3:0 29 2] [33] 1 0
r 3.659428000 _2_ RTR  --- 33 cbr 1020 [13a 2 1 800] ------- [0:0 3:0 29 2] [33] 2 0
f 3.659428000 _2_ RTR  --- 33 cbr 1020 [13a 2 1 800] ------- [0:0 3:0 28 3] [33] 2 0
r 3.669574010 _3_ AGT  --- 33 cbr 1020 [13a 3 2 800] ------- [0:0 3:0 28 3] [33] 3 0
s 3.720000000 _0_ AGT  --- 34 cbr 1000 [0 0 0 0] ------- [0:0 3:0 32 0] [34] 0 0
r 3.720000000 _0_ RTR  --- 34 cbr 1000 [0 0 0 0] ------- [0:0 3:0 32 0] [34] 0 0
s 3.720000000 _0_ RTR  --- 34 cbr 1020 [0 0 0 0] ------- [0:0 3:0 30 1] [34] 0 0
r 3.729962000 _1_ RTR  --- 34 cbr 1020 [13a 1 0 800] ------- [0:0 3:0 30 1] [34] 1 0
f 3.729962000 _1_ RTR  --- 34 cbr 1020 [13a 1 0 800] ------- [0:0 3:0 29 2] [34] 1 0
r 3.740108000 _2_ RTR  --- 34 cbr 1020 [13a 2 1 800] ------- [0:0 3:0 29 2] [34] 2 0
f 3.740108000 _2_ RTR  --- 34 cbr 1020 [13a 2 1 800] ------- [0:0 3:0 28 3] [34] 2 0
r 3.749974010 _3_ AGT  --- 34 cbr 1020 [13a 3 2 800] ------- [0:0 3:0 28 3] [34] 3 0
s 3.800000000 _0_ AGT  --- 35 cbr 1000 [0 0 0 0] ------- [0:0 3:0 32 0] [35] 0 0
r 3.800000000 _0_ RTR  --- 35 cbr 1000 [0 0 0 0] ------- [0:0 3:0 32 0] [35] 0 0
s 3.800000000 _0_ RTR  --- 35 cbr 1020 [0 0 0 0] ------- [0:0 3:0 30 1] [35] 0 0
r 3.809822000 _1_ RTR  --- 35 cbr 1020 [13a 1 0 800] ------- [0:0 3:0 30 1] [35] 1 0
f 3.809822000 _1_ RTR  --- 35 cbr 1020 [13a 1 0 800] ------- [0:0 3:0 29 2] [35] 1 0
r 3.820048000 _2_ RTR  --- 35 cbr 1020 [13a 2 1 800] ------- [0:0 3:0 29 2] [35] 2 0
f 3.820048000 _2_ RTR  --- 35 cbr 1020 [13a 2 1 800] ------- [0:0 3:0 28 3] [35] 2 0
r 3.829974010 _3_ AGT  --- 35 cbr 1020 [13a 3 2 800] ------- [0:0 3:0 28 3] [35] 3 0
s 3.880000000 _0_ AGT  --- 36 cbr 1000 [0 0 0 0] ------- [0:0 3:0 32 0] [36] 0 0
r 3.880000000 _0_ RTR  --- 36 cbr 1000 [0 0 0 0] ------- [0:0 3:0 32 0] [36] 0 0
s 3.880000000 _0_ RTR  --- 36 cbr 1020 [0 0 0 0] ------- [0:0 3:0 30 1] [36] 0 0
r 3.889942000 _1_ RTR  --- 36 cbr 1020 [13a 1 0 800] ------- [0:0 3:0 30 1] [36] 1 0
f 3.889942000 _1_ RTR  --- 36 cbr 1020 [13a 1 0 800] ------- [0:0 3:0 29 2] [36] 1 0
r 3.900128000 _2_ RTR  --- 36 cbr 1020 [13a 2 1 800] ------- [0:0 3:0 29 2] [36] 2 0
f 3.900128000 _2_ RTR  --- 36 cbr 1020 [13a 2 1 800] ------- [0:0 3:0 28 3] [36] 2 0
r 3.910234010 _3_ AGT  --- 36 cbr 1020 [13a 3 2 800] ------- [0:0 3:0 28 3] [36] 3 0
s 3.960000000 _0_ AGT  --- 37 cbr 1000 [0 0 0 0] ------- [0:0 3:0 32 0] [37] 0 0
r 3.960000000 _0_ RTR  --- 37 cbr 1000 [0 0 0 0] ------- [0:0 3:0 32 0] [37] 0 0
s 3.960000000 _0_ RTR  --- 37 cbr 1020 [0 0 0 0] ------- [0:0 3:0 30 1] [37] 0 0
r 3.969802000 _1_ RTR  --- 37 cbr 1020 [13a 1 0 800] ------- [0:0 3:0 30 1] [37] 1 0
f 3.969802000 _1_ RTR  --- 37 cbr 1020 [13a 1 0 800] ------- [0:0 3:0 29 2] [37] 1 0
r 3.979848000 _2_ RTR  --- 37 cbr 1020 [13a 2 1 800] ------- [0:0 3:0 29 2] [37] 2 0
f 3.979848000 _2_ RTR  --- 37 cbr 1020 [13a 2 1 800] ------- [0:0 3:0 28 3] [37] 2 0
r 3.989994010 _3_ AGT  --- 37 cbr 1020 [13a 3 2 800] ------- [0:0 3:0 28 3] [37] 3 0
s 4.040000000 _0_ AGT  --- 38 cbr 1000 [0 0 0 0] ------- [0:0 3:0 32 0] [38] 0 0
r 4.040000000 _0_ RTR  --- 38 cbr 1000 [0 0 0 0] ------- [0:0 3:0 32 0] [38] 0 0
s 4.040000000 _0_ RTR  --- 38 cbr 1020 [0 0 0 0] ------- [0:0 3:0 30 1] [38] 0 0
r 4.049422000 _1_ RTR  --- 38 cbr 1020 [13a 1 0 800] ------- [0:0 3:0 30 1] [38] 1 0
f 4.049422000 _1_ RTR  --- 38 cbr 1020 [13a 1 0 800] ------- [0:0 3:0 29 2] [38] 1 0
r 4.059228000 _2_ RTR  --- 38 cbr 1020 [13a 2 1 800] ------- [0:0 3:0 29 2] [38] 2 0
f 4.059228000 _2_ RTR  --- 38 cbr 1020 [13a 2 1 800] ------- [0:0 3:0 28 3] [38] 2 0
r 4.069234010 _3_ AGT  --- 38 cbr 1020 [13a 3 2 800] ------- [0:0 3:0 28 3] [38] 3 0
s 4.120000000 _0_ AGT  --- 39 cbr 1000 [0 0 0 0] ------- [0:0 3:0 32 0] [39] 0 0
r 4.120000000 _0_ RTR  --- 39 cbr 1000 [0 0 0 0] ------- [0:0 3:0 32 0] [39] 0 0
s 4.120000000 _0_ RTR  --- 39 cbr 1020 [0 0 0 0] ------- [0:0 3:0 30 1] [39] 0 0
r 4.129602000 _1_ RTR  --- 39 cbr 1020 [13a 1 0 800] ------- [0:0 3:0 30 1] [39] 1 0
f 4.129602000 _1_ RTR  --- 39 cbr 1020 [13a 1 0 800] ------- [0:0 3:0 29 2] [39] 1 0
r 4.139348000 _2_ RTR  --- 39 cbr 1020 [13a 2 1 800] ------- [0:0 3:0 29 2] [39] 2 0
f 4.139348000 _2_ RTR  --- 39 cbr 1020 [13a 2 1 800] ------- [0:0 3:0 28 3] [39] 2 0
r 4.149234010 _3_ AGT  --- 39 cbr 1020 [13a 3 2 800] ------- [0:0 3:0 28 3] [39] 3 0