s 0.000000000 _12_ AGT  --- 0 cbr 1000 [0 0 0 0] ------- [12:0 13:0 32 0] [0] 0 0
r 0.000000000 _12_ RTR  --- 0 cbr 1000 [0 0 0 0] ------- [12:0 13:0 32 0] [0] 0 0
s 0.000000000 _12_ RTR  --- 0 AODV 48 [0 0 0 0] ------- [12:255 -1:255 30 0] [0x2 1 1 [13 0] [12 4]] (REQUEST)
s 0.000535000 _12_ MAC  --- 0 AODV 106 [0 ffffffff c 800] ------- [12:255 -1:255 30 0] [0x2 1 1 [13 0] [12 4]] (REQUEST)
r 0.001383333 _14_ MAC  --- 0 AODV 48 [0 ffffffff c 800] ------- [12:255 -1:255 30 0] [0x2 1 1 [13 0] [12 4]] (REQUEST)
r 0.001383663 _0_ MAC  --- 0 AODV 48 [0 ffffffff c 800] ------- [12:255 -1:255 30 0] [0x2 1 1 [13 0] [12 4]] (REQUEST)
r 0.001383741 _3_ MAC  --- 0 AODV 48 [0 ffffffff c 800] ------- [12:255 -1:255 30 0] [0x2 1 1 [13 0] [12 4]] (REQUEST)
r 0.001383744 _1_ MAC  --- 0 AODV 48 [0 ffffffff c 800] ------- [12:255 -1:255 30 0] [0x2 1 1 [13 0] [12 4]] (REQUEST)
r 0.001383745 _2_ MAC  --- 0 AODV 48 [0 ffffffff c 800] ------- [12:255 -1:255 30 0] [0x2 1 1 [13 0] [12 4]] (REQUEST)
r 0.001383748 _4_ MAC  --- 0 AODV 48 [0 ffffffff c 800] ------- [12:255 -1:255 30 0] [0x2 1 1 [13 0] [12 4]] (REQUEST)
r 0.001384196 _11_ MAC  --- 0 AODV 48 [0 ffffffff c 800] ------- [12:255 -1:255 30 0] [0x2 1 1 [13 0] [12 4]] (REQUEST)
r 0.001384196 _10_ MAC  --- 0 AODV 48 [0 ffffffff c 800] ------- [12:255 -1:255 30 0] [0x2 1 1 [13 0] [12 4]] (REQUEST)
r 0.001408333 _14_ RTR  --- 0 AODV 48 [0 ffffffff c 800] ------- [12:255 -1:255 30 0] [0x2 1 1 [13 0] [12 4]] (REQUEST)
r 0.001408663 _0_ RTR  --- 0 AODV 48 [0 ffffffff c 800] ------- [12:255 -1:255 30 0] [0x2 1 1 [13 0] [12 4]] (REQUEST)
r 0.001408741 _3_ RTR  --- 0 AODV 48 [0 ffffffff c 800] ------- [12:255 -1:255 30 0] [0x2 1 1 [13 0] [12 4]] (REQUEST)
r 0.001408744 _1_ RTR  --- 0 AODV 48 [0 ffffffff c 800] ------- [12:255 -1:255 30 0] [0x2 1 1 [13 0] [12 4]] (REQUEST)
r 0.001408745 _2_ RTR  --- 0 AODV 48 [0 ffffffff c 800] ------- [12:255 -1:255 30 0] [0x2 1 1 [13 0] [12 4]] (REQUEST)
r 0.001408748 _4_ RTR  --- 0 AODV 48 [0 ffffffff c 800] ------- [12:255 -1:255 30 0] [0x2 1 1 [13 0] [12 4]] (REQUEST)
r 0.001409196 _11_ RTR  --- 0 AODV 48 [0 ffffffff c 800] ------- [12:255 -1:255 30 0] [0x2 1 1 [13 0] [12 4]] (REQUEST)
r 0.001409196 _10_ RTR  --- 0 AODV 48 [0 ffffffff c 800] ------- [12:255 -1:255 30 0] [0x2 1 1 [13 0] [12 4]] (REQUEST)
s 0.001550380 _14_ RTR  --- 0 AODV 48 [0 ffffffff c 800] ------- [14:255 -1:255 29 0] [0x2 2 1 [13 0] [12 4]] (REQUEST)
s 0.001885380 _14_ MAC  --- 0 AODV 106 [0 ffffffff e 800] ------- [14:255 -1:255 29 0] [0x2 2 1 [13 0] [12 4]] (REQUEST)
s 0.002289890 _0_ RTR  --- 0 AODV 48 [0 ffffffff c 800] ------- [0:255 -1:255 29 0] [0x2 2 1 [13 0] [12 4]] (REQUEST)
r 0.002733713 _12_ MAC  --- 0 AODV 48 [0 ffffffff e 800] ------- [14:255 -1:255 29 0] [0x2 2 1 [13 0] [12 4]] (REQUEST)
r 0.002733844 _3_ MAC  --- 0 AODV 48 [0 ffffffff e 800] ------- [14:255 -1:255 29 0] [0x2 2 1 [13 0] [12 4]] (REQUEST)
r 0.002733854 _2_ MAC  --- 0 AODV 48 [0 ffffffff e 800] ------- [14:255 -1:255 29 0] [0x2 2 1 [13 0] [12 4]] (REQUEST)
r 0.002734127 _0_ MAC  --- 0 AODV 48 [0 ffffffff e 800] ------- [14:255 -1:255 29 0] [0x2 2 1 [13 0] [12 4]] (REQUEST)
r 0.002734431 _11_ MAC  --- 0 AODV 48 [0 ffffffff e 800] ------- [14:255 -1:255 29 0] [0x2 2 1 [13 0] [12 4]] (REQUEST)
r 0.002734434 _1_ MAC  --- 0 AODV 48 [0 ffffffff e 800] ------- [14:255 -1:255 29 0] [0x2 2 1 [13 0] [12 4]] (REQUEST)
r 0.002734436 _4_ MAC  --- 0 AODV 48 [0 ffffffff e 800] ------- [14:255 -1:255 29 0] [0x2 2 1 [13 0] [12 4]] (REQUEST)
r 0.002734792 _10_ MAC  --- 0 AODV 48 [0 ffffffff e 800] ------- [14:255 -1:255 29 0] [0x2 2 1 [13 0] [12 4]] (REQUEST)
r 0.002735079 _9_ MAC  --- 0 AODV 48 [0 ffffffff e 800] ------- [14:255 -1:255 29 0] [0x2 2 1 [13 0] [12 4]] (REQUEST)
r 0.002758713 _12_ RTR  --- 0 AODV 48 [0 ffffffff e 800] ------- [14:255 -1:255 29 0] [0x2 2 1 [13 0] [12 4]] (REQUEST)
r 0.002758844 _3_ RTR  --- 0 AODV 48 [0 ffffffff e 800] ------- [14:255 -1:255 29 0] [0x2 2 1 [13 0] [12 4]] (REQUEST)
r 0.002758854 _2_ RTR  --- 0 AODV 48 [0 ffffffff e 800] ------- [14:255 -1:255 29 0] [0x2 2 1 [13 0] [12 4]] (REQUEST)
r 0.002759127 _0_ RTR  --- 0 AODV 48 [0 ffffffff e 800] ------- [14:255 -1:255 29 0] [0x2 2 1 [13 0] [12 4]] (REQUEST)
r 0.002759431 _11_ RTR  --- 0 AODV 48 [0 ffffffff e 800] ------- [14:255 -1:255 29 0] [0x2 2 1 [13 0] [12 4]] (REQUEST)
r 0.002759434 _1_ RTR  --- 0 AODV 48 [0 ffffffff e 800] ------- [14:255 -1:255 29 0] [0x2 2 1 [13 0] [12 4]] (REQUEST)
r 0.002759436 _4_ RTR  --- 0 AODV 48 [0 ffffffff e 800] ------- [14:255 -1:255 29 0] [0x2 2 1 [13 0] [12 4]] (REQUEST)
r 0.002759792 _10_ RTR  --- 0 AODV 48 [0 ffffffff e 800] ------- [14:255 -1:255 29 0] [0x2 2 1 [13 0] [12 4]] (REQUEST)
r 0.002760079 _9_ RTR  --- 0 AODV 48 [0 ffffffff e 800] ------- [14:255 -1:255 29 0] [0x2 2 1 [13 0] [12 4]] (REQUEST)
s 0.003024127 _0_ MAC  --- 0 AODV 106 [0 ffffffff 0 800] ------- [0:255 -1:255 29 0] [0x2 2 1 [13 0] [12 4]] (REQUEST)
s 0.003188025 _9_ RTR  --- 0 AODV 48 [0 ffffffff e 800] ------- [9:255 -1:255 28 0] [0x2 3 1 [13 0] [12 4]] (REQUEST)
s 0.003755214 _11_ RTR  --- 0 AODV 48 [0 ffffffff c 800] ------- [11:255 -1:255 29 0] [0x2 2 1 [13 0] [12 4]] (REQUEST)
r 0.003872790 _12_ MAC  --- 0 AODV 48 [0 ffffffff 0 800] ------- [0:255 -1:255 29 0] [0x2 2 1 [13 0] [12 4]] (REQUEST)
r 0.003872868 _10_ MAC  --- 0 AODV 48 [0 ffffffff 0 800] ------- [0:255 -1:255 29 0] [0x2 2 1 [13 0] [12 4]] (REQUEST)
r 0.003872869 _1_ MAC  --- 0 AODV 48 [0 ffffffff 0 800] ------- [0:255 -1:255 29 0] [0x2 2 1 [13 0] [12 4]] (REQUEST)
r 0.003872874 _14_ MAC  --- 0 AODV 48 [0 ffffffff 0 800] ------- [0:255 -1:255 29 0] [0x2 2 1 [13 0] [12 4]] (REQUEST)
r 0.003872874 _11_ MAC  --- 0 AODV 48 [0 ffffffff 0 800] ------- [0:255 -1:255 29 0] [0x2 2 1 [13 0] [12 4]] (REQUEST)
r 0.003872874 _2_ MAC  --- 0 AODV 48 [0 ffffffff 0 800] ------- [0:255 -1:255 29 0] [0x2 2 1 [13 0] [12 4]] (REQUEST)
r 0.003873323 _3_ MAC  --- 0 AODV 48 [0 ffffffff 0 800] ------- [0:255 -1:255 29 0] [0x2 2 1 [13 0] [12 4]] (REQUEST)
r 0.003873326 _4_ MAC  --- 0 AODV 48 [0 ffffffff 0 800] ------- [0:255 -1:255 29 0] [0x2 2 1 [13 0] [12 4]] (REQUEST)
r 0.003897790 _12_ RTR  --- 0 AODV 48 [0 ffffffff 0 800] ------- [0:255 -1:255 29 0] [0x2 2 1 [13 0] [12 4]] (REQUEST)
r 0.003897868 _10_ RTR  --- 0 AODV 48 [0 ffffffff 0 800] ------- [0:255 -1:255 29 0] [0x2 2 1 [13 0] [12 4]] (REQUEST)
r 0.003897869 _1_ RTR  --- 0 AODV 48 [0 ffffffff 0 800] ------- [0:255 -1:255 29 0] [0x2 2 1 [13 0] [12 4]] (REQUEST)
r 0.003897874 _14_ RTR  --- 0 AODV 48 [0 ffffffff 0 800] ------- [0:255 -1:255 29 0] [0x2 2 1 [13 0] [12 4]] (REQUEST)
r 0.003897874 _11_ RTR  --- 0 AODV 48 [0 ffffffff 0 800] ------- [0:255 -1:255 29 0] [0x2 2 1 [13 0] [12 4]] (REQUEST)
r 0.003897874 _2_ RTR  --- 0 AODV 48 [0 ffffffff 0 800] ------- [0:255 -1:255 29 0] [0x2 2 1 [13 0] [12 4]] (REQUEST)
r 0.003898323 _3_ RTR  --- 0 AODV 48 [0 ffffffff 0 800] ------- [0:255 -1:255 29 0] [0x2 2 1 [13 0] [12 4]] (REQUEST)
r 0.003898326 _4_ RTR  --- 0 AODV 48 [0 ffffffff 0 800] ------- [0:255 -1:255 29 0] [0x2 2 1 [13 0] [12 4]] (REQUEST)
s 0.004282874 _11_ MAC  --- 0 AODV 106 [0 ffffffff b 800] ------- [11:255 -1:255 29 0] [0x2 2 1 [13 0] [12 4]] (REQUEST)
s 0.004448554 _9_ MAC  --- 0 AODV 106 [0 ffffffff 9 800] ------- [9:255 -1:255 28 0] [0x2 3 1 [13 0] [12 4]] (REQUEST)
D 0.004449894 _3_ MAC  COL 0 AODV 106 [0 ffffffff b 800] ------- [11:255 -1:255 29 0] [0x2 2 1 [13 0] [12 4]] (REQUEST)
D 0.004450253 _14_ MAC  COL 0 AODV 106 [0 ffffffff b 800] ------- [11:255 -1:255 29 0] [0x2 2 1 [13 0] [12 4]] (REQUEST)
D 0.004450350 _12_ MAC  COL 0 AODV 106 [0 ffffffff b 800] ------- [11:255 -1:255 29 0] [0x2 2 1 [13 0] [12 4]] (REQUEST)
D 0.004450955 _1_ MAC  COL 0 AODV 106 [0 ffffffff b 800] ------- [11:255 -1:255 29 0] [0x2 2 1 [13 0] [12 4]] (REQUEST)
s 0.004538363 _2_ RTR  --- 0 AODV 48 [0 ffffffff c 800] ------- [2:255 -1:255 29 0] [0x2 2 1 [13 0] [12 4]] (REQUEST)
r 0.005131534 _2_ MAC  --- 0 AODV 48 [0 ffffffff b 800] ------- [11:255 -1:255 29 0] [0x2 2 1 [13 0] [12 4]] (REQUEST)
r 0.005131621 _0_ MAC  --- 0 AODV 48 [0 ffffffff b 800] ------- [11:255 -1:255 29 0] [0x2 2 1 [13 0] [12 4]] (REQUEST)
r 0.005132207 _10_ MAC  --- 0 AODV 48 [0 ffffffff b 800] ------- [11:255 -1:255 29 0] [0x2 2 1 [13 0] [12 4]] (REQUEST)
r 0.005156534 _2_ RTR  --- 0 AODV 48 [0 ffffffff b 800] ------- [11:255 -1:255 29 0] [0x2 2 1 [13 0] [12 4]] (REQUEST)
r 0.005156621 _0_ RTR  --- 0 AODV 48 [0 ffffffff b 800] ------- [11:255 -1:255 29 0] [0x2 2 1 [13 0] [12 4]] (REQUEST)
r 0.005157207 _10_ RTR  --- 0 AODV 48 [0 ffffffff b 800] ------- [11:255 -1:255 29 0] [0x2 2 1 [13 0] [12 4]] (REQUEST)
r 0.005297220 _8_ MAC  --- 0 AODV 48 [0 ffffffff 9 800] ------- [9:255 -1:255 28 0] [0x2 3 1 [13 0] [12 4]] (REQUEST)
r 0.005297299 _13_ MAC  --- 0 AODV 48 [0 ffffffff 9 800] ------- [9:255 -1:255 28 0] [0x2 3 1 [13 0] [12 4]] (REQUEST)
r 0.005297604 _15_ MAC  --- 0 AODV 48 [0 ffffffff 9 800] ------- [9:255 -1:255 28 0] [0x2 3 1 [13 0] [12 4]] (REQUEST)
r 0.005297751 _7_ MAC  --- 0 AODV 48 [0 ffffffff 9 800] ------- [9:255 -1:255 28 0] [0x2 3 1 [13 0] [12 4]] (REQUEST)
r 0.005297880 _5_ MAC  --- 0 AODV 48 [0 ffffffff 9 800] ------- [9:255 -1:255 28 0] [0x2 3 1 [13 0] [12 4]] (REQUEST)
D 0.005297894 _3_ MAC  COL 0 AODV 106 [0 ffffffff 9 800] ------- [9:255 -1:255 28 0] [0x2 3 1 [13 0] [12 4]] (REQUEST)
r 0.005298038 _6_ MAC  --- 0 AODV 48 [0 ffffffff 9 800] ------- [9:255 -1:255 28 0] [0x2 3 1 [13 0] [12 4]] (REQUEST)
D 0.005298253 _14_ MAC  COL 0 AODV 106 [0 ffffffff 9 800] ------- [9:255 -1:255 28 0] [0x2 3 1 [13 0] [12 4]] (REQUEST)
r 0.005322220 _8_ RTR  --- 0 AODV 48 [0 ffffffff 9 800] ------- [9:255 -1:255 28 0] [0x2 3 1 [13 0] [12 4]] (REQUEST)
r 0.005322299 _13_ RTR  --- 0 AODV 48 [0 ffffffff 9 800] ------- [9:255 -1:255 28 0] [0x2 3 1 [13 0] [12 4]] (REQUEST)
s 0.005322299 _13_ RTR  --- 0 AODV 44 [0 0 0 0] ------- [13:255 12:255 30 9] [0x4 1 [13 4] 10.000000] (REPLY)
r 0.005322604 _15_ RTR  --- 0 AODV 48 [0 ffffffff 9 800] ------- [9:255 -1:255 28 0] [0x2 3 1 [13 0] [12 4]] (REQUEST)
r 0.005322751 _7_ RTR  --- 0 AODV 48 [0 ffffffff 9 800] ------- [9:255 -1:255 28 0] [0x2 3 1 [13 0] [12 4]] (REQUEST)
r 0.005322880 _5_ RTR  --- 0 AODV 48 [0 ffffffff 9 800] ------- [9:255 -1:255 28 0] [0x2 3 1 [13 0] [12 4]] (REQUEST)
r 0.005323038 _6_ RTR  --- 0 AODV 48 [0 ffffffff 9 800] ------- [9:255 -1:255 28 0] [0x2 3 1 [13 0] [12 4]] (REQUEST)
s 0.005820475 _3_ RTR  --- 0 AODV 48 [0 ffffffff c 800] ------- [3:255 -1:255 29 0] [0x2 2 1 [13 0] [12 4]] (REQUEST)
s 0.005837299 _13_ MAC  --- 0 ARP 86 [0 ffffffff d 800] ------- [REQUEST 13/13 0/9]
r 0.006525629 _15_ MAC  --- 0 ARP 28 [0 ffffffff d 800] ------- [REQUEST 13/13 0/9]
r 0.006525962 _7_ MAC  --- 0 ARP 28 [0 ffffffff d 800] ------- [REQUEST 13/13 0/9]
r 0.006526038 _6_ MAC  --- 0 ARP 28 [0 ffffffff d 800] ------- [REQUEST 13/13 0/9]
r 0.006526040 _5_ MAC  --- 0 ARP 28 [0 ffffffff d 800] ------- [REQUEST 13/13 0/9]
r 0.006526041 _8_ MAC  --- 0 ARP 28 [0 ffffffff d 800] ------- [REQUEST 13/13 0/9]
r 0.006526044 _9_ MAC  --- 0 ARP 28 [0 ffffffff d 800] ------- [REQUEST 13/13 0/9]
s 0.006981730 _2_ MAC  --- 0 AODV 106 [0 ffffffff 2 800] ------- [2:255 -1:255 29 0] [0x2 2 1 [13 0] [12 4]] (REQUEST)
s 0.007797848 _10_ RTR  --- 0 AODV 48 [0 ffffffff c 800] ------- [10:255 -1:255 29 0] [0x2 2 1 [13 0] [12 4]] (REQUEST)
r 0.007830203 _14_ MAC  --- 0 AODV 48 [0 ffffffff 2 800] ------- [2:255 -1:255 29 0] [0x2 2 1 [13 0] [12 4]] (REQUEST)
r 0.007830390 _11_ MAC  --- 0 AODV 48 [0 ffffffff 2 800] ------- [2:255 -1:255 29 0] [0x2 2 1 [13 0] [12 4]] (REQUEST)
r 0.007830393 _3_ MAC  --- 0 AODV 48 [0 ffffffff 2 800] ------- [2:255 -1:255 29 0] [0x2 2 1 [13 0] [12 4]] (REQUEST)
r 0.007830475 _12_ MAC  --- 0 AODV 48 [0 ffffffff 2 800] ------- [2:255 -1:255 29 0] [0x2 2 1 [13 0] [12 4]] (REQUEST)
r 0.007830477 _0_ MAC  --- 0 AODV 48 [0 ffffffff 2 800] ------- [2:255 -1:255 29 0] [0x2 2 1 [13 0] [12 4]] (REQUEST)
r 0.007831063 _1_ MAC  --- 0 AODV 48 [0 ffffffff 2 800] ------- [2:255 -1:255 29 0] [0x2 2 1 [13 0] [12 4]] (REQUEST)
r 0.007831217 _10_ MAC  --- 0 AODV 48 [0 ffffffff 2 800] ------- [2:255 -1:255 29 0] [0x2 2 1 [13 0] [12 4]] (REQUEST)
r 0.007831223 _4_ MAC  --- 0 AODV 48 [0 ffffffff 2 800] ------- [2:255 -1:255 29 0] [0x2 2 1 [13 0] [12 4]] (REQUEST)
r 0.007855203 _14_ RTR  --- 0 AODV 48 [0 ffffffff 2 800] ------- [2:255 -1:255 29 0] [0x2 2 1 [13 0] [12 4]] (REQUEST)
r 0.007855390 _11_ RTR  --- 0 AODV 48 [0 ffffffff 2 800] ------- [2:255 -1:255 29 0] [0x2 2 1 [13 0] [12 4]] (REQUEST)
r 0.007855393 _3_ RTR  --- 0 AODV 48 [0 ffffffff 2 800] ------- [2:255 -1:255 29 0] [0x2 2 1 [13 0] [12 4]] (REQUEST)
r 0.007855475 _12_ RTR  --- 0 AODV 48 [0 ffffffff 2 800] ------- [2:255 -1:255 29 0] [0x2 2 1 [13 0] [12 4]] (REQUEST)
r 0.007855477 _0_ RTR  --- 0 AODV 48 [0 ffffffff 2 800] ------- [2:255 -1:255 29 0] [0x2 2 1 [13 0] [12 4]] (REQUEST)
r 0.007856063 _1_ RTR  --- 0 AODV 48 [0 ffffffff 2 800] ------- [2:255 -1:255 29 0] [0x2 2 1 [13 0] [12 4]] (REQUEST)
r 0.007856217 _10_ RTR  --- 0 AODV 48 [0 ffffffff 2 800] ------- [2:255 -1:255 29 0] [0x2 2 1 [13 0] [12 4]] (REQUEST)
r 0.007856223 _4_ RTR  --- 0 AODV 48 [0 ffffffff 2 800] ------- [2:255 -1:255 29 0] [0x2 2 1 [13 0] [12 4]] (REQUEST)
s 0.007903630 _7_ RTR  --- 0 AODV 48 [0 ffffffff 9 800] ------- [7:255 -1:255 27 0] [0x2 4 1 [13 0] [12 4]] (REQUEST)
s 0.008000000 _12_ AGT  --- 1 cbr 1000 [0 0 0 0] ------- [12:0 13:0 32 0] [1] 0 0
r 0.008000000 _12_ RTR  --- 1 cbr 1000 [0 0 0 0] ------- [12:0 13:0 32 0] [1] 0 0
s 0.008018630 _7_ MAC  --- 0 AODV 106 [0 ffffffff 7 800] ------- [7:255 -1:255 27 0] [0x2 4 1 [13 0] [12 4]] (REQUEST)
s 0.008020393 _3_ MAC  --- 0 AODV 106 [0 ffffffff 3 800] ------- [3:255 -1:255 29 0] [0x2 2 1 [13 0] [12 4]] (REQUEST)
D 0.008021733 _9_ MAC  COL 0 AODV 106 [0 ffffffff 7 800] ------- [7:255 -1:255 27 0] [0x2 4 1 [13 0] [12 4]] (REQUEST)
D 0.008022276 _5_ MAC  COL 0 AODV 106 [0 ffffffff 7 800] ------- [7:255 -1:255 27 0] [0x2 4 1 [13 0] [12 4]] (REQUEST)
s 0.008810015 _15_ RTR  --- 0 AODV 48 [0 ffffffff 9 800] ------- [15:255 -1:255 27 0] [0x2 4 1 [13 0] [12 4]] (REQUEST)
r 0.008867294 _13_ MAC  --- 0 AODV 48 [0 ffffffff 7 800] ------- [7:255 -1:255 27 0] [0x2 4 1 [13 0] [12 4]] (REQUEST)
r 0.008867368 _8_ MAC  --- 0 AODV 48 [0 ffffffff 7 800] ------- [7:255 -1:255 27 0] [0x2 4 1 [13 0] [12 4]] (REQUEST)
r 0.008867371 _6_ MAC  --- 0 AODV 48 [0 ffffffff 7 800] ------- [7:255 -1:255 27 0] [0x2 4 1 [13 0] [12 4]] (REQUEST)
r 0.008867373 _15_ MAC  --- 0 AODV 48 [0 ffffffff 7 800] ------- [7:255 -1:255 27 0] [0x2 4 1 [13 0] [12 4]] (REQUEST)
r 0.008868857 _14_ MAC  --- 0 AODV 48 [0 ffffffff 3 800] ------- [3:255 -1:255 29 0] [0x2 2 1 [13 0] [12 4]] (REQUEST)
r 0.008869056 _2_ MAC  --- 0 AODV 48 [0 ffffffff 3 800] ------- [3:255 -1:255 29 0] [0x2 2 1 [13 0] [12 4]] (REQUEST)
r 0.008869134 _12_ MAC  --- 0 AODV 48 [0 ffffffff 3 800] ------- [3:255 -1:255 29 0] [0x2 2 1 [13 0] [12 4]] (REQUEST)
r 0.008869589 _0_ MAC  --- 0 AODV 48 [0 ffffffff 3 800] ------- [3:255 -1:255 29 0] [0x2 2 1 [13 0] [12 4]] (REQUEST)
r 0.008869716 _11_ MAC  --- 0 AODV 48 [0 ffffffff 3 800] ------- [3:255 -1:255 29 0] [0x2 2 1 [13 0] [12 4]] (REQUEST)
D 0.008869726 _4_ MAC  COL 0 AODV 106 [0 ffffffff 3 800] ------- [3:255 -1:255 29 0] [0x2 2 1 [13 0] [12 4]] (REQUEST)
D 0.008869733 _9_ MAC  COL 0 AODV 106 [0 ffffffff 3 800] ------- [3:255 -1:255 29 0] [0x2 2 1 [13 0] [12 4]] (REQUEST)
r 0.008869878 _1_ MAC  --- 0 AODV 48 [0 ffffffff 3 800] ------- [3:255 -1:255 29 0] [0x2 2 1 [13 0] [12 4]] (REQUEST)
r 0.008892294 _13_ RTR  --- 0 AODV 48 [0 ffffffff 7 800] ------- [7:255 -1:255 27 0] [0x2 4 1 [13 0] [12 4]] (REQUEST)
r 0.008892368 _8_ RTR  --- 0 AODV 48 [0 ffffffff 7 800] ------- [7:255 -1:255 27 0] [0x2 4 1 [13 0] [12 4]] (REQUEST)
r 0.008892371 _6_ RTR  --- 0 AODV 48 [0 ffffffff 7 800] ------- [7:255 -1:255 27 0] [0x2 4 1 [13 0] [12 4]] (REQUEST)
r 0.008892373 _15_ RTR  --- 0 AODV 48 [0 ffffffff 7 800] ------- [7:255 -1:255 27 0] [0x2 4 1 [13 0] [12 4]] (REQUEST)
r 0.008893857 _14_ RTR  --- 0 AODV 48 [0 ffffffff 3 800] ------- [3:255 -1:255 29 0] [0x2 2 1 [13 0] [12 4]] (REQUEST)
r 0.008894056 _2_ RTR  --- 0 AODV 48 [0 ffffffff 3 800] ------- [3:255 -1:255 29 0] [0x2 2 1 [13 0] [12 4]] (REQUEST)
r 0.008894134 _12_ RTR  --- 0 AODV 48 [0 ffffffff 3 800] ------- [3:255 -1:255 29 0] [0x2 2 1 [13 0] [12 4]] (REQUEST)
r 0.008894589 _0_ RTR  --- 0 AODV 48 [0 ffffffff 3 800] ------- [3:255 -1:255 29 0] [0x2 2 1 [13 0] [12 4]] (REQUEST)
r 0.008894716 _11_ RTR  --- 0 AODV 48 [0 ffffffff 3 800] ------- [3:255 -1:255 29 0] [0x2 2 1 [13 0] [12 4]] (REQUEST)
r 0.008894878 _1_ RTR  --- 0 AODV 48 [0 ffffffff 3 800] ------- [3:255 -1:255 29 0] [0x2 2 1 [13 0] [12 4]] (REQUEST)
s 0.009303733 _9_ MAC  --- 0 RTS 44 [52e d 9 0] 
s 0.009400298 _1_ RTR  --- 0 AODV 48 [0 ffffffff c 800] ------- [1:255 -1:255 29 0] [0x2 2 1 [13 0] [12 4]] (REQUEST)
s 0.009409737 _5_ RTR  --- 0 AODV 48 [0 ffffffff 9 800] ------- [5:255 -1:255 27 0] [0x2 4 1 [13 0] [12 4]] (REQUEST)
s 0.009573509 _4_ RTR  --- 0 AODV 48 [0 ffffffff c 800] ------- [4:255 -1:255 29 0] [0x2 2 1 [13 0] [12 4]] (REQUEST)
r 0.009656478 _13_ MAC  --- 0 RTS 44 [52e d 9 0] 
s 0.009666478 _13_ MAC  --- 0 CTS 38 [3f4 9 0 0] 
s 0.009684269 _10_ MAC  --- 0 AODV 106 [0 ffffffff a 800] ------- [10:255 -1:255 29 0] [0x2 2 1 [13 0] [12 4]] (REQUEST)
r 0.009971224 _9_ MAC  --- 0 CTS 38 [3f4 9 0 0] 
s 0.009981224 _9_ MAC  --- 0 ARP 86 [13a d 9 800] ------- [REPLY 9/9 13/13]
D 0.009982923 _14_ MAC  COL 0 AODV 106 [0 ffffffff a 800] ------- [10:255 -1:255 29 0] [0x2 2 1 [13 0] [12 4]] (REQUEST)
D 0.009983021 _12_ MAC  COL 0 AODV 106 [0 ffffffff a 800] ------- [10:255 -1:255 29 0] [0x2 2 1 [13 0] [12 4]] (REQUEST)
D 0.009983112 _4_ MAC  COL 0 AODV 106 [0 ffffffff a 800] ------- [10:255 -1:255 29 0] [0x2 2 1 [13 0] [12 4]] (REQUEST)
D 0.009983227 _2_ MAC  COL 0 AODV 106 [0 ffffffff a 800] ------- [10:255 -1:255 29 0] [0x2 2 1 [13 0] [12 4]] (REQUEST)
s 0.010509526 _6_ RTR  --- 0 AODV 48 [0 ffffffff 9 800] ------- [6:255 -1:255 27 0] [0x2 4 1 [13 0] [12 4]] (REQUEST)
D 0.010532933 _1_ MAC  COL 0 AODV 106 [0 ffffffff a 800] ------- [10:255 -1:255 29 0] [0x2 2 1 [13 0] [12 4]] (REQUEST)
r 0.010533010 _0_ MAC  --- 0 AODV 48 [0 ffffffff a 800] ------- [10:255 -1:255 29 0] [0x2 2 1 [13 0] [12 4]] (REQUEST)
r 0.010533603 _11_ MAC  --- 0 AODV 48 [0 ffffffff a 800] ------- [10:255 -1:255 29 0] [0x2 2 1 [13 0] [12 4]] (REQUEST)
r 0.010558010 _0_ RTR  --- 0 AODV 48 [0 ffffffff a 800] ------- [10:255 -1:255 29 0] [0x2 2 1 [13 0] [12 4]] (REQUEST)
r 0.010558603 _11_ RTR  --- 0 AODV 48 [0 ffffffff a 800] ------- [10:255 -1:255 29 0] [0x2 2 1 [13 0] [12 4]] (REQUEST)
r 0.010669969 _13_ MAC  --- 0 ARP 28 [13a d 9 800] ------- [REPLY 9/9 13/13]
s 0.010679969 _13_ MAC  --- 0 ACK 38 [0 9 0 0] 
r 0.010984714 _9_ MAC  --- 0 ACK 38 [0 9 0 0] 
s 0.011193969 _13_ MAC  --- 0 RTS 44 [5ae 9 d 0] 
r 0.011546714 _9_ MAC  --- 0 RTS 44 [5ae 9 d 0] 
s 0.011556714 _9_ MAC  --- 0 CTS 38 [474 d 0 0] 
r 0.011861460 _13_ MAC  --- 0 CTS 38 [474 d 0 0] 
s 0.011871460 _13_ MAC  --- 0 AODV 102 [13a 9 d 800] ------- [13:255 12:255 30 9] [0x4 1 [13 4] 10.000000] (REPLY)
r 0.012688205 _9_ MAC  --- 0 AODV 44 [13a 9 d 800] ------- [13:255 12:255 30 9] [0x4 1 [13 4] 10.000000] (REPLY)
s 0.012698205 _9_ MAC  --- 0 ACK 38 [0 d 0 0] 
r 0.012713205 _9_ RTR  --- 0 AODV 44 [13a 9 d 800] ------- [13:255 12:255 30 9] [0x4 1 [13 4] 10.000000] (REPLY)
f 0.012713205 _9_ RTR  --- 0 AODV 44 [13a 9 d 800] ------- [13:255 12:255 29 14] [0x4 2 [13 4] 10.000000] (REPLY)
r 0.013002951 _13_ MAC  --- 0 ACK 38 [0 d 0 0] 
s 0.013112205 _9_ MAC  --- 0 ARP 86 [0 ffffffff 9 800] ------- [REQUEST 9/9 0/14]
s 0.013392506 _8_ RTR  --- 0 AODV 48 [0 ffffffff 9 800] ------- [8:255 -1:255 27 0] [0x2 4 1 [13 0] [12 4]] (REQUEST)
r 0.013800872 _8_ MAC  --- 0 ARP 28 [0 ffffffff 9 800] ------- [REQUEST 9/9 0/14]
r 0.013800951 _13_ MAC  --- 0 ARP 28 [0 ffffffff 9 800] ------- [REQUEST 9/9 0/14]
r 0.013801256 _15_ MAC  --- 0 ARP 28 [0 ffffffff 9 800] ------- [REQUEST 9/9 0/14]
r 0.013801402 _7_ MAC  --- 0 ARP 28 [0 ffffffff 9 800] ------- [REQUEST 9/9 0/14]
r 0.013801532 _5_ MAC  --- 0 ARP 28 [0 ffffffff 9 800] ------- [REQUEST 9/9 0/14]
r 0.013801545 _3_ MAC  --- 0 ARP 28 [0 ffffffff 9 800] ------- [REQUEST 9/9 0/14]
r 0.013801690 _6_ MAC  --- 0 ARP 28 [0 ffffffff 9 800] ------- [REQUEST 9/9 0/14]
r 0.013801904 _14_ MAC  --- 0 ARP 28 [0 ffffffff 9 800] ------- [REQUEST 9/9 0/14]
s 0.013911256 _15_ MAC  --- 0 AODV 106 [0 ffffffff f 800] ------- [15:255 -1:255 27 0] [0x2 4 1 [13 0] [12 4]] (REQUEST)
s 0.013911532 _5_ MAC  --- 0 AODV 106 [0 ffffffff 5 800] ------- [5:255 -1:255 27 0] [0x2 4 1 [13 0] [12 4]] (REQUEST)
D 0.013912202 _6_ MAC  COL 0 AODV 106 [0 ffffffff f 800] ------- [15:255 -1:255 27 0] [0x2 4 1 [13 0] [12 4]] (REQUEST)
D 0.013912732 _7_ MAC  COL 0 AODV 106 [0 ffffffff f 800] ------- [15:255 -1:255 27 0] [0x2 4 1 [13 0] [12 4]] (REQUEST)
D 0.013912859 _9_ MAC  COL 0 AODV 106 [0 ffffffff f 800] ------- [15:255 -1:255 27 0] [0x2 4 1 [13 0] [12 4]] (REQUEST)
D 0.013912960 _4_ MAC  COL 0 AODV 106 [0 ffffffff 5 800] ------- [5:255 -1:255 27 0] [0x2 4 1 [13 0] [12 4]] (REQUEST)
D 0.013913015 _8_ MAC  COL 0 AODV 106 [0 ffffffff f 800] ------- [15:255 -1:255 27 0] [0x2 4 1 [13 0] [12 4]] (REQUEST)
r 0.014759586 _13_ MAC  --- 0 AODV 48 [0 ffffffff f 800] ------- [15:255 -1:255 27 0] [0x2 4 1 [13 0] [12 4]] (REQUEST)
D 0.014760202 _6_ MAC  COL 0 AODV 106 [0 ffffffff 5 800] ------- [5:255 -1:255 27 0] [0x2 4 1 [13 0] [12 4]] (REQUEST)
D 0.014760732 _7_ MAC  COL 0 AODV 106 [0 ffffffff 5 800] ------- [5:255 -1:255 27 0] [0x2 4 1 [13 0] [12 4]] (REQUEST)
D 0.014760859 _9_ MAC  COL 0 AODV 106 [0 ffffffff 5 800] ------- [5:255 -1:255 27 0] [0x2 4 1 [13 0] [12 4]] (REQUEST)
D 0.014760960 _4_ MAC  COL 0 AODV 106 [0 ffffffff f 800] ------- [15:255 -1:255 27 0] [0x2 4 1 [13 0] [12 4]] (REQUEST)
D 0.014761015 _8_ MAC  COL 0 AODV 106 [0 ffffffff 5 800] ------- [5:255 -1:255 27 0] [0x2 4 1 [13 0] [12 4]] (REQUEST)
r 0.014784586 _13_ RTR  --- 0 AODV 48 [0 ffffffff f 800] ------- [15:255 -1:255 27 0] [0x2 4 1 [13 0] [12 4]] (REQUEST)
s 0.015255613 _1_ MAC  --- 0 AODV 106 [0 ffffffff 1 800] ------- [1:255 -1:255 29 0] [0x2 2 1 [13 0] [12 4]] (REQUEST)
s 0.015414202 _6_ MAC  --- 0 AODV 106 [0 ffffffff 6 800] ------- [6:255 -1:255 27 0] [0x2 4 1 [13 0] [12 4]] (REQUEST)
D 0.015416607 _3_ MAC  COL 0 AODV 106 [0 ffffffff 1 800] ------- [1:255 -1:255 29 0] [0x2 2 1 [13 0] [12 4]] (REQUEST)
s 0.016000000 _12_ AGT  --- 2 cbr 1000 [0 0 0 0] ------- [12:0 13:0 32 0] [2] 0 0
r 0.016000000 _12_ RTR  --- 2 cbr 1000 [0 0 0 0] ------- [12:0 13:0 32 0] [2] 0 0
r 0.016104276 _10_ MAC  --- 0 AODV 48 [0 ffffffff 1 800] ------- [1:255 -1:255 29 0] [0x2 2 1 [13 0] [12 4]] (REQUEST)
r 0.016104276 _4_ MAC  --- 0 AODV 48 [0 ffffffff 1 800] ------- [1:255 -1:255 29 0] [0x2 2 1 [13 0] [12 4]] (REQUEST)
r 0.016104356 _0_ MAC  --- 0 AODV 48 [0 ffffffff 1 800] ------- [1:255 -1:255 29 0] [0x2 2 1 [13 0] [12 4]] (REQUEST)
r 0.016104357 _12_ MAC  --- 0 AODV 48 [0 ffffffff 1 800] ------- [1:255 -1:255 29 0] [0x2 2 1 [13 0] [12 4]] (REQUEST)
r 0.016104667 _14_ MAC  --- 0 AODV 48 [0 ffffffff 1 800] ------- [1:255 -1:255 29 0] [0x2 2 1 [13 0] [12 4]] (REQUEST)
r 0.016104946 _2_ MAC  --- 0 AODV 48 [0 ffffffff 1 800] ------- [1:255 -1:255 29 0] [0x2 2 1 [13 0] [12 4]] (REQUEST)
r 0.016105102 _11_ MAC  --- 0 AODV 48 [0 ffffffff 1 800] ------- [1:255 -1:255 29 0] [0x2 2 1 [13 0] [12 4]] (REQUEST)
r 0.016129276 _10_ RTR  --- 0 AODV 48 [0 ffffffff 1 800] ------- [1:255 -1:255 29 0] [0x2 2 1 [13 0] [12 4]] (REQUEST)
r 0.016129276 _4_ RTR  --- 0 AODV 48 [0 ffffffff 1 800] ------- [1:255 -1:255 29 0] [0x2 2 1 [13 0] [12 4]] (REQUEST)
r 0.016129356 _0_ RTR  --- 0 AODV 48 [0 ffffffff 1 800] ------- [1:255 -1:255 29 0] [0x2 2 1 [13 0] [12 4]] (REQUEST)
r 0.016129357 _12_ RTR  --- 0 AODV 48 [0 ffffffff 1 800] ------- [1:255 -1:255 29 0] [0x2 2 1 [13 0] [12 4]] (REQUEST)
r 0.016129667 _14_ RTR  --- 0 AODV 48 [0 ffffffff 1 800] ------- [1:255 -1:255 29 0] [0x2 2 1 [13 0] [12 4]] (REQUEST)
r 0.016129946 _2_ RTR  --- 0 AODV 48 [0 ffffffff 1 800] ------- [1:255 -1:255 29 0] [0x2 2 1 [13 0] [12 4]] (REQUEST)
r 0.016130102 _11_ RTR  --- 0 AODV 48 [0 ffffffff 1 800] ------- [1:255 -1:255 29 0] [0x2 2 1 [13 0] [12 4]] (REQUEST)
D 0.016262671 _15_ MAC  COL 0 AODV 106 [0 ffffffff 6 800] ------- [6:255 -1:255 27 0] [0x2 4 1 [13 0] [12 4]] (REQUEST)
D 0.016262872 _5_ MAC  COL 0 AODV 106 [0 ffffffff 6 800] ------- [6:255 -1:255 27 0] [0x2 4 1 [13 0] [12 4]] (REQUEST)
D 0.016262941 _13_ MAC  COL 0 AODV 106 [0 ffffffff 6 800] ------- [6:255 -1:255 27 0] [0x2 4 1 [13 0] [12 4]] (REQUEST)
r 0.016262943 _7_ MAC  --- 0 AODV 48 [0 ffffffff 6 800] ------- [6:255 -1:255 27 0] [0x2 4 1 [13 0] [12 4]] (REQUEST)
r 0.016263525 _8_ MAC  --- 0 AODV 48 [0 ffffffff 6 800] ------- [6:255 -1:255 27 0] [0x2 4 1 [13 0] [12 4]] (REQUEST)
D 0.016263687 _9_ MAC  COL 0 AODV 106 [0 ffffffff 6 800] ------- [6:255 -1:255 27 0] [0x2 4 1 [13 0] [12 4]] (REQUEST)
r 0.016287943 _7_ RTR  --- 0 AODV 48 [0 ffffffff 6 800] ------- [6:255 -1:255 27 0] [0x2 4 1 [13 0] [12 4]] (REQUEST)
r 0.016288525 _8_ RTR  --- 0 AODV 48 [0 ffffffff 6 800] ------- [6:255 -1:255 27 0] [0x2 4 1 [13 0] [12 4]] (REQUEST)
s 0.016593525 _8_ MAC  --- 0 AODV 106 [0 ffffffff 8 800] ------- [8:255 -1:255 27 0] [0x2 4 1 [13 0] [12 4]] (REQUEST)
r 0.017442192 _9_ MAC  --- 0 AODV 48 [0 ffffffff 8 800] ------- [8:255 -1:255 27 0] [0x2 4 1 [13 0] [12 4]] (REQUEST)
r 0.017442263 _7_ MAC  --- 0 AODV 48 [0 ffffffff 8 800] ------- [8:255 -1:255 27 0] [0x2 4 1 [13 0] [12 4]] (REQUEST)
r 0.017442268 _13_ MAC  --- 0 AODV 48 [0 ffffffff 8 800] ------- [8:255 -1:255 27 0] [0x2 4 1 [13 0] [12 4]] (REQUEST)
r 0.017442573 _15_ MAC  --- 0 AODV 48 [0 ffffffff 8 800] ------- [8:255 -1:255 27 0] [0x2 4 1 [13 0] [12 4]] (REQUEST)
r 0.017442849 _6_ MAC  --- 0 AODV 48 [0 ffffffff 8 800] ------- [8:255 -1:255 27 0] [0x2 4 1 [13 0] [12 4]] (REQUEST)
r 0.017443008 _5_ MAC  --- 0 AODV 48 [0 ffffffff 8 800] ------- [8:255 -1:255 27 0] [0x2 4 1 [13 0] [12 4]] (REQUEST)
r 0.017467192 _9_ RTR  --- 0 AODV 48 [0 ffffffff 8 800] ------- [8:255 -1:255 27 0] [0x2 4 1 [13 0] [12 4]] (REQUEST)
r 0.017467263 _7_ RTR  --- 0 AODV 48 [0 ffffffff 8 800] ------- [8:255 -1:255 27 0] [0x2 4 1 [13 0] [12 4]] (REQUEST)
r 0.017467268 _13_ RTR  --- 0 AODV 48 [0 ffffffff 8 800] ------- [8:255 -1:255 27 0] [0x2 4 1 [13 0] [12 4]] (REQUEST)
r 0.017467573 _15_ RTR  --- 0 AODV 48 [0 ffffffff 8 800] ------- [8:255 -1:255 27 0] [0x2 4 1 [13 0] [12 4]] (REQUEST)
r 0.017467849 _6_ RTR  --- 0 AODV 48 [0 ffffffff 8 800] ------- [8:255 -1:255 27 0] [0x2 4 1 [13 0] [12 4]] (REQUEST)
r 0.017468008 _5_ RTR  --- 0 AODV 48 [0 ffffffff 8 800] ------- [8:255 -1:255 27 0] [0x2 4 1 [13 0] [12 4]] (REQUEST)
s 0.017877881 _14_ MAC  --- 0 RTS 44 [52e 9 e 0] 
r 0.018231580 _9_ MAC  --- 0 RTS 44 [52e 9 e 0] 
s 0.018241580 _9_ MAC  --- 0 CTS 38 [3f4 e 0 0] 
r 0.018547279 _14_ MAC  --- 0 CTS 38 [3f4 e 0 0] 
s 0.018557279 _14_ MAC  --- 0 ARP 86 [13a 9 e 800] ------- [REPLY 14/14 9/9]
r 0.019246978 _9_ MAC  --- 0 ARP 28 [13a 9 e 800] ------- [REPLY 14/14 9/9]
s 0.019256978 _9_ MAC  --- 0 ACK 38 [0 e 0 0] 
r 0.019562677 _14_ MAC  --- 0 ACK 38 [0 e 0 0] 
s 0.020076866 _4_ MAC  --- 0 AODV 106 [0 ffffffff 4 800] ------- [4:255 -1:255 29 0] [0x2 2 1 [13 0] [12 4]] (REQUEST)
r 0.020925530 _1_ MAC  --- 0 AODV 48 [0 ffffffff 4 800] ------- [4:255 -1:255 29 0] [0x2 2 1 [13 0] [12 4]] (REQUEST)
r 0.020925615 _12_ MAC  --- 0 AODV 48 [0 ffffffff 4 800] ------- [4:255 -1:255 29 0] [0x2 2 1 [13 0] [12 4]] (REQUEST)
r 0.020925923 _14_ MAC  --- 0 AODV 48 [0 ffffffff 4 800] ------- [4:255 -1:255 29 0] [0x2 2 1 [13 0] [12 4]] (REQUEST)
r 0.020926065 _0_ MAC  --- 0 AODV 48 [0 ffffffff 4 800] ------- [4:255 -1:255 29 0] [0x2 2 1 [13 0] [12 4]] (REQUEST)
r 0.020926193 _10_ MAC  --- 0 AODV 48 [0 ffffffff 4 800] ------- [4:255 -1:255 29 0] [0x2 2 1 [13 0] [12 4]] (REQUEST)
r 0.020926200 _3_ MAC  --- 0 AODV 48 [0 ffffffff 4 800] ------- [4:255 -1:255 29 0] [0x2 2 1 [13 0] [12 4]] (REQUEST)
r 0.020926200 _5_ MAC  --- 0 AODV 48 [0 ffffffff 4 800] ------- [4:255 -1:255 29 0] [0x2 2 1 [13 0] [12 4]] (REQUEST)
r 0.020926360 _2_ MAC  --- 0 AODV 48 [0 ffffffff 4 800] ------- [4:255 -1:255 29 0] [0x2 2 1 [13 0] [12 4]] (REQUEST)
r 0.020926570 _15_ MAC  --- 0 AODV 48 [0 ffffffff 4 800] ------- [4:255 -1:255 29 0] [0x2 2 1 [13 0] [12 4]] (REQUEST)
r 0.020950530 _1_ RTR  --- 0 AODV 48 [0 ffffffff 4 800] ------- [4:255 -1:255 29 0] [0x2 2 1 [13 0] [12 4]] (REQUEST)
r 0.020950615 _12_ RTR  --- 0 AODV 48 [0 ffffffff 4 800] ------- [4:255 -1:255 29 0] [0x2 2 1 [13 0] [12 4]] (REQUEST)
r 0.020950923 _14_ RTR  --- 0 AODV 48 [0 ffffffff 4 800] ------- [4:255 -1:255 29 0] [0x2 2 1 [13 0] [12 4]] (REQUEST)
r 0.020951065 _0_ RTR  --- 0 AODV 48 [0 ffffffff 4 800] ------- [4:255 -1:255 29 0] [0x2 2 1 [13 0] [12 4]] (REQUEST)
r 0.020951193 _10_ RTR  --- 0 AODV 48 [0 ffffffff 4 800] ------- [4:255 -1:255 29 0] [0x2 2 1 [13 0] [12 4]] (REQUEST)
r 0.020951200 _3_ RTR  --- 0 AODV 48 [0 ffffffff 4 800] ------- [4:255 -1:255 29 0] [0x2 2 1 [13 0] [12 4]] (REQUEST)
r 0.020951200 _5_ RTR  --- 0 AODV 48 [0 ffffffff 4 800] ------- [4:255 -1:255 29 0] [0x2 2 1 [13 0] [12 4]] (REQUEST)
r 0.020951360 _2_ RTR  --- 0 AODV 48 [0 ffffffff 4 800] ------- [4:255 -1:255 29 0] [0x2 2 1 [13 0] [12 4]] (REQUEST)
r 0.020951570 _15_ RTR  --- 0 AODV 48 [0 ffffffff 4 800] ------- [4:255 -1:255 29 0] [0x2 2 1 [13 0] [12 4]] (REQUEST)
s 0.021360754 _9_ MAC  --- 0 RTS 44 [5ae e 9 0] 
r 0.021714453 _14_ MAC  --- 0 RTS 44 [5ae e 9 0] 
s 0.021724453 _14_ MAC  --- 0 CTS 38 [474 9 0 0] 
r 0.022030152 _9_ MAC  --- 0 CTS 38 [474 9 0 0] 
s 0.022040152 _9_ MAC  --- 0 AODV 102 [13a e 9 800] ------- [13:255 12:255 29 14] [0x4 2 [13 4] 10.000000] (REPLY)
r 0.022857851 _14_ MAC  --- 0 AODV 44 [13a e 9 800] ------- [13:255 12:255 29 14] [0x4 2 [13 4] 10.000000] (REPLY)
s 0.022867851 _14_ MAC  --- 0 ACK 38 [0 9 0 0] 