s 0.000000000 _12_ AGT  --- 0 cbr 1000 [0 0 0 0] ------- [12:0 13:0 32 0] [0] 0 0
r 0.000000000 _12_ RTR  --- 0 cbr 1000 [0 0 0 0] ------- [12:0 13:0 32 0] [0] 0 0
s 0.000000000 _12_ RTR  --- 0 AODV 48 [0 0 0 0] ------- [12:255 -1:255 30 0] [0x2 1 1 [13 0] [12 4]] (REQUEST)
s 0.000535000 _12_ MAC  --- 0 AODV 106 [0 ffffffff c 800] ------- [12:255 -1:255 30 0] [0x2 1 1 [13 0] [12 4]] (REQUEST)
r 0.001383333 _14_ MAC  --- 0 AODV 48 [0 ffffffff c 800] ------- [12:255 -1:255 30 0] [0x2 1 1 [13 0] [12 4]] (REQUEST)
r 0.001383663 _0_ MAC  --- 0 AODV 48 [0 ffffffff c 800] ------- [12:255 -1:255 30 0] [0x2 1 1 [13 0] [12 4]] (REQUEST)
r 0.001383741 _3_ MAC  --- 0 AODV 48 [0 ffffffff c 800] ------- [12:255 -1:255 30 0] [0x2 1 1 [13 0] [12 4]] (REQUEST)
r 0.001383744 _1_ MAC  --- 0 AODV 48 [0 ffffffff c 800] ------- [12:255 -1:255 30 0] [0x2 1 1 [13 0] [12 4]] (REQUEST)
r 0.001383745 _2_ MAC  --- 0 AODV 48 [0 ffffffff c 800] ------- [12:255 -1:255 30 0] [0x2 1 1 [13 0] [12 4]] (REQUEST)
r 0.001383748 _4_ MAC  --- 0 AODV 48 [0 ffffffff c 800] ------- [12:255 -1:255 30 0] [0x2 1 1 [13 0] [12 4]] (REQUEST)
r 0.001384196 _11_ MAC  --- 0 AODV 48 [0 ffffffff c 800] ------- [12:255 -1:255 30 0] [0x2 1 1 [13 0] [12 4]] (REQUEST)
r 0.001384196 _10_ MAC  --- 0 AODV 48 [0 ffffffff c 800] ------- [12:255 -1:255 30 0] [0x2 1 1 [13 0] [12 4]] (REQUEST)
r 0.001408333 _14_ RTR  --- 0 AODV 48 [0 ffffffff c 800] ------- [12:255 -1:255 30 0] [0x2 1 1 [13 0] [12 4]] (REQUEST)
r 0.001408663 _0_ RTR  --- 0 AODV 48 [0 ffffffff c 800] ------- [12:255 -1:255 30 0] [0x2 1 1 [13 0] [12 4]] (REQUEST)
r 0.001408741 _3_ RTR  --- 0 AODV 48 [0 ffffffff c 800] ------- [12:255 -1:255 30 0] [0x2 1 1 [13 0] [12 4]] (REQUEST)
r 0.001408744 _1_ RTR  --- 0 AODV 48 [0 ffffffff c 800] ------- [12:255 -1:255 30 0] [0x2 1 1 [13 0] [12 4]] (REQUEST)
r 0.001408745 _2_ RTR  --- 0 AODV 48 [0 ffffffff c 800] ------- [12:255 -1:255 30 0] [0x2 1 1 [13 0] [12 4]] (REQUEST)
r 0.001408748 _4_ RTR  --- 0 AODV 48 [0 ffffffff c 800] ------- [12:255 -1:255 30 0] [0x2 1 1 [13 0] [12 4]] (REQUEST)
r 0.001409196 _11_ RTR  --- 0 AODV 48 [0 ffffffff c 800] ------- [12:255 -1:255 30 0] [0x2 1 1 [13 0] [12 4]] (REQUEST)
r 0.001409196 _10_ RTR  --- 0 AODV 48 [0 ffffffff c 800] ------- [12:255 -1:255 30 0] [0x2 1 1 [13 0] [12 4]] (REQUEST)
s 0.001550380 _14_ RTR  --- 0 AODV 48 [0 ffffffff c 800] ------- [14:255 -1:255 29 0] [0x2 2 1 [13 0] [12 4]] (REQUEST)
r 0.001600380 _15_ RTR  --- 0 AODV 48 [0 ffffffff e 800] ------- [14:255 -1:255 29 0] [0x2 2 1 [13 0] [12 4]] (REQUEST)
s 0.001885380 _14_ MAC  --- 0 AODV 106 [0 ffffffff e 800] ------- [14:255 -1:255 29 0] [0x2 2 1 [13 0] [12 4]] (REQUEST)
s 0.002289890 _0_ RTR  --- 0 AODV 48 [0 ffffffff c 800] ------- [0:255 -1:255 29 0] [0x2 2 1 [13 0] [12 4]] (REQUEST)
r 0.002733713 _12_ MAC  --- 0 AODV 48 [0 ffffffff e 800] ------- [14:255 -1:255 29 0] [0x2 2 1 [13 0] [12 4]] (REQUEST)
r 0.002733844 _3_ MAC  --- 0 AODV 48 [0 ffffffff e 800] ------- [14:255 -1:255 29 0] [0x2 2 1 [13 0] [12 4]] (REQUEST)
r 0.002733854 _2_ MAC  --- 0 AODV 48 [0 ffffffff e 800] ------- [14:255 -1:255 29 0] [0x2 2 1 [13 0] [12 4]] (REQUEST)
r 0.002734127 _0_ MAC  --- 0 AODV 48 [0 ffffffff e 800] ------- [14:255 -1:255 29 0] [0x2 2 1 [13 0] [12 4]] (REQUEST)
r 0.002734431 _11_ MAC  --- 0 AODV 48 [0 ffffffff e 800] ------- [14:255 -1:255 29 0] [0x2 2 1 [13 0] [12 4]] (REQUEST)
r 0.002734434 _1_ MAC  --- 0 AODV 48 [0 ffffffff e 800] ------- [14:255 -1:255 29 0] [0x2 2 1 [13 0] [12 4]] (REQUEST)
r 0.002734436 _4_ MAC  --- 0 AODV 48 [0 ffffffff e 800] ------- [14:255 -1:255 29 0] [0x2 2 1 [13 0] [12 4]] (REQUEST)
r 0.002734792 _10_ MAC  --- 0 AODV 48 [0 ffffffff e 800] ------- [14:255 -1:255 29 0] [0x2 2 1 [13 0] [12 4]] (REQUEST)
r 0.002735079 _9_ MAC  --- 0 AODV 48 [0 ffffffff e 800] ------- [14:255 -1:255 29 0] [0x2 2 1 [13 0] [12 4]] (REQUEST)
r 0.002758713 _12_ RTR  --- 0 AODV 48 [0 ffffffff e 800] ------- [14:255 -1:255 29 0] [0x2 2 1 [13 0] [12 4]] (REQUEST)
r 0.002758844 _3_ RTR  --- 0 AODV 48 [0 ffffffff e 800] ------- [14:255 -1:255 29 0] [0x2 2 1 [13 0] [12 4]] (REQUEST)
r 0.002758854 _2_ RTR  --- 0 AODV 48 [0 ffffffff e 800] ------- [14:255 -1:255 29 0] [0x2 2 1 [13 0] [12 4]] (REQUEST)
r 0.002759127 _0_ RTR  --- 0 AODV 48 [0 ffffffff e 800] ------- [14:255 -1:255 29 0] [0x2 2 1 [13 0] [12 4]] (REQUEST)
r 0.002759431 _11_ RTR  --- 0 AODV 48 [0 ffffffff e 800] ------- [14:255 -1:255 29 0] [0x2 2 1 [13 0] [12 4]] (REQUEST)
r 0.002759434 _1_ RTR  --- 0 AODV 48 [0 ffffffff e 800] ------- [14:255 -1:255 29 0] [0x2 2 1 [13 0] [12 4]] (REQUEST)
r 0.002759436 _4_ RTR  --- 0 AODV 48 [0 ffffffff e 800] ------- [14:255 -1:255 29 0] [0x2 2 1 [13 0] [12 4]] (REQUEST)
r 0.002759792 _10_ RTR  --- 0 AODV 48 [0 ffffffff e 800] ------- [14:255 -1:255 29 0] [0x2 2 1 [13 0] [12 4]] (REQUEST)
r 0.002760079 _9_ RTR  --- 0 AODV 48 [0 ffffffff e 800] ------- [14:255 -1:255 29 0] [0x2 2 1 [13 0] [12 4]] (REQUEST)
s 0.002824127 _0_ MAC  --- 0 AODV 106 [0 ffffffff 0 800] ------- [0:255 -1:255 29 0] [0x2 2 1 [13 0] [12 4]] (REQUEST)
r 0.003672790 _12_ MAC  --- 0 AODV 48 [0 ffffffff 0 800] ------- [0:255 -1:255 29 0] [0x2 2 1 [13 0] [12 4]] (REQUEST)
r 0.003672868 _10_ MAC  --- 0 AODV 48 [0 ffffffff 0 800] ------- [0:255 -1:255 29 0] [0x2 2 1 [13 0] [12 4]] (REQUEST)
r 0.003672869 _1_ MAC  --- 0 AODV 48 [0 ffffffff 0 800] ------- [0:255 -1:255 29 0] [0x2 2 1 [13 0] [12 4]] (REQUEST)
r 0.003672874 _14_ MAC  --- 0 AODV 48 [0 ffffffff 0 800] ------- [0:255 -1:255 29 0] [0x2 2 1 [13 0] [12 4]] (REQUEST)
r 0.003672874 _11_ MAC  --- 0 AODV 48 [0 ffffffff 0 800] ------- [0:255 -1:255 29 0] [0x2 2 1 [13 0] [12 4]] (REQUEST)
r 0.003672874 _2_ MAC  --- 0 AODV 48 [0 ffffffff 0 800] ------- [0:255 -1:255 29 0] [0x2 2 1 [13 0] [12 4]] (REQUEST)
r 0.003673323 _3_ MAC  --- 0 AODV 48 [0 ffffffff 0 800] ------- [0:255 -1:255 29 0] [0x2 2 1 [13 0] [12 4]] (REQUEST)
r 0.003673326 _4_ MAC  --- 0 AODV 48 [0 ffffffff 0 800] ------- [0:255 -1:255 29 0] [0x2 2 1 [13 0] [12 4]] (REQUEST)
r 0.003697790 _12_ RTR  --- 0 AODV 48 [0 ffffffff 0 800] ------- [0:255 -1:255 29 0] [0x2 2 1 [13 0] [12 4]] (REQUEST)
r 0.003697868 _10_ RTR  --- 0 AODV 48 [0 ffffffff 0 800] ------- [0:255 -1:255 29 0] [0x2 2 1 [13 0] [12 4]] (REQUEST)
r 0.003697869 _1_ RTR  --- 0 AODV 48 [0 ffffffff 0 800] ------- [0:255 -1:255 29 0] [0x2 2 1 [13 0] [12 4]] (REQUEST)
r 0.003697874 _14_ RTR  --- 0 AODV 48 [0 ffffffff 0 800] ------- [0:255 -1:255 29 0] [0x2 2 1 [13 0] [12 4]] (REQUEST)
r 0.003697874 _11_ RTR  --- 0 AODV 48 [0 ffffffff 0 800] ------- [0:255 -1:255 29 0] [0x2 2 1 [13 0] [12 4]] (REQUEST)
r 0.003697874 _2_ RTR  --- 0 AODV 48 [0 ffffffff 0 800] ------- [0:255 -1:255 29 0] [0x2 2 1 [13 0] [12 4]] (REQUEST)
r 0.003698323 _3_ RTR  --- 0 AODV 48 [0 ffffffff 0 800] ------- [0:255 -1:255 29 0] [0x2 2 1 [13 0] [12 4]] (REQUEST)
r 0.003698326 _4_ RTR  --- 0 AODV 48 [0 ffffffff 0 800] ------- [0:255 -1:255 29 0] [0x2 2 1 [13 0] [12 4]] (REQUEST)
s 0.003755214 _11_ RTR  --- 0 AODV 48 [0 ffffffff c 800] ------- [11:255 -1:255 29 0] [0x2 2 1 [13 0] [12 4]] (REQUEST)
s 0.004070214 _11_ MAC  --- 0 AODV 106 [0 ffffffff b 800] ------- [11:255 -1:255 29 0] [0x2 2 1 [13 0] [12 4]] (REQUEST)
s 0.004538363 _2_ RTR  --- 0 AODV 48 [0 ffffffff c 800] ------- [2:255 -1:255 29 0] [0x2 2 1 [13 0] [12 4]] (REQUEST)
r 0.004918874 _2_ MAC  --- 0 AODV 48 [0 ffffffff b 800] ------- [11:255 -1:255 29 0] [0x2 2 1 [13 0] [12 4]] (REQUEST)
r 0.004918961 _0_ MAC  --- 0 AODV 48 [0 ffffffff b 800] ------- [11:255 -1:255 29 0] [0x2 2 1 [13 0] [12 4]] (REQUEST)
r 0.004919265 _14_ MAC  --- 0 AODV 48 [0 ffffffff b 800] ------- [11:255 -1:255 29 0] [0x2 2 1 [13 0] [12 4]] (REQUEST)
r 0.004919410 _12_ MAC  --- 0 AODV 48 [0 ffffffff b 800] ------- [11:255 -1:255 29 0] [0x2 2 1 [13 0] [12 4]] (REQUEST)
r 0.004919537 _3_ MAC  --- 0 AODV 48 [0 ffffffff b 800] ------- [11:255 -1:255 29 0] [0x2 2 1 [13 0] [12 4]] (REQUEST)
r 0.004919547 _10_ MAC  --- 0 AODV 48 [0 ffffffff b 800] ------- [11:255 -1:255 29 0] [0x2 2 1 [13 0] [12 4]] (REQUEST)
r 0.004919703 _1_ MAC  --- 0 AODV 48 [0 ffffffff b 800] ------- [11:255 -1:255 29 0] [0x2 2 1 [13 0] [12 4]] (REQUEST)
r 0.004943874 _2_ RTR  --- 0 AODV 48 [0 ffffffff b 800] ------- [11:255 -1:255 29 0] [0x2 2 1 [13 0] [12 4]] (REQUEST)
r 0.004943961 _0_ RTR  --- 0 AODV 48 [0 ffffffff b 800] ------- [11:255 -1:255 29 0] [0x2 2 1 [13 0] [12 4]] (REQUEST)
r 0.004944265 _14_ RTR  --- 0 AODV 48 [0 ffffffff b 800] ------- [11:255 -1:255 29 0] [0x2 2 1 [13 0] [12 4]] (REQUEST)
r 0.004944410 _12_ RTR  --- 0 AODV 48 [0 ffffffff b 800] ------- [11:255 -1:255 29 0] [0x2 2 1 [13 0] [12 4]] (REQUEST)
r 0.004944537 _3_ RTR  --- 0 AODV 48 [0 ffffffff b 800] ------- [11:255 -1:255 29 0] [0x2 2 1 [13 0] [12 4]] (REQUEST)
r 0.004944547 _10_ RTR  --- 0 AODV 48 [0 ffffffff b 800] ------- [11:255 -1:255 29 0] [0x2 2 1 [13 0] [12 4]] (REQUEST)
r 0.004944703 _1_ RTR  --- 0 AODV 48 [0 ffffffff b 800] ------- [11:255 -1:255 29 0] [0x2 2 1 [13 0] [12 4]] (REQUEST)
s 0.005128874 _2_ MAC  --- 0 AODV 106 [0 ffffffff 2 800] ------- [2:255 -1:255 29 0] [0x2 2 1 [13 0] [12 4]] (REQUEST)
s 0.005820475 _3_ RTR  --- 0 AODV 48 [0 ffffffff c 800] ------- [3:255 -1:255 29 0] [0x2 2 1 [13 0] [12 4]] (REQUEST)
r 0.005977348 _14_ MAC  --- 0 AODV 48 [0 ffffffff 2 800] ------- [2:255 -1:255 29 0] [0x2 2 1 [13 0] [12 4]] (REQUEST)
r 0.005977534 _11_ MAC  --- 0 AODV 48 [0 ffffffff 2 800] ------- [2:255 -1:255 29 0] [0x2 2 1 [13 0] [12 4]] (REQUEST)
r 0.005977537 _3_ MAC  --- 0 AODV 48 [0 ffffffff 2 800] ------- [2:255 -1:255 29 0] [0x2 2 1 [13 0] [12 4]] (REQUEST)
r 0.005977619 _12_ MAC  --- 0 AODV 48 [0 ffffffff 2 800] ------- [2:255 -1:255 29 0] [0x2 2 1 [13 0] [12 4]] (REQUEST)
r 0.005977621 _0_ MAC  --- 0 AODV 48 [0 ffffffff 2 800] ------- [2:255 -1:255 29 0] [0x2 2 1 [13 0] [12 4]] (REQUEST)
r 0.005978207 _1_ MAC  --- 0 AODV 48 [0 ffffffff 2 800] ------- [2:255 -1:255 29 0] [0x2 2 1 [13 0] [12 4]] (REQUEST)
r 0.005978362 _10_ MAC  --- 0 AODV 48 [0 ffffffff 2 800] ------- [2:255 -1:255 29 0] [0x2 2 1 [13 0] [12 4]] (REQUEST)
r 0.005978368 _4_ MAC  --- 0 AODV 48 [0 ffffffff 2 800] ------- [2:255 -1:255 29 0] [0x2 2 1 [13 0] [12 4]] (REQUEST)
r 0.006002348 _14_ RTR  --- 0 AODV 48 [0 ffffffff 2 800] ------- [2:255 -1:255 29 0] [0x2 2 1 [13 0] [12 4]] (REQUEST)
r 0.006002534 _11_ RTR  --- 0 AODV 48 [0 ffffffff 2 800] ------- [2:255 -1:255 29 0] [0x2 2 1 [13 0] [12 4]] (REQUEST)
r 0.006002537 _3_ RTR  --- 0 AODV 48 [0 ffffffff 2 800] ------- [2:255 -1:255 29 0] [0x2 2 1 [13 0] [12 4]] (REQUEST)
r 0.006002619 _12_ RTR  --- 0 AODV 48 [0 ffffffff 2 800] ------- [2:255 -1:255 29 0] [0x2 2 1 [13 0] [12 4]] (REQUEST)
r 0.006002621 _0_ RTR  --- 0 AODV 48 [0 ffffffff 2 800] ------- [2:255 -1:255 29 0] [0x2 2 1 [13 0] [12 4]] (REQUEST)
r 0.006003207 _1_ RTR  --- 0 AODV 48 [0 ffffffff 2 800] ------- [2:255 -1:255 29 0] [0x2 2 1 [13 0] [12 4]] (REQUEST)
r 0.006003362 _10_ RTR  --- 0 AODV 48 [0 ffffffff 2 800] ------- [2:255 -1:255 29 0] [0x2 2 1 [13 0] [12 4]] (REQUEST)
r 0.006003368 _4_ RTR  --- 0 AODV 48 [0 ffffffff 2 800] ------- [2:255 -1:255 29 0] [0x2 2 1 [13 0] [12 4]] (REQUEST)
s 0.006367537 _3_ MAC  --- 0 AODV 106 [0 ffffffff 3 800] ------- [3:255 -1:255 29 0] [0x2 2 1 [13 0] [12 4]] (REQUEST)
r 0.007216002 _14_ MAC  --- 0 AODV 48 [0 ffffffff 3 800] ------- [3:255 -1:255 29 0] [0x2 2 1 [13 0] [12 4]] (REQUEST)
r 0.007216201 _2_ MAC  --- 0 AODV 48 [0 ffffffff 3 800] ------- [3:255 -1:255 29 0] [0x2 2 1 [13 0] [12 4]] (REQUEST)
r 0.007216278 _12_ MAC  --- 0 AODV 48 [0 ffffffff 3 800] ------- [3:255 -1:255 29 0] [0x2 2 1 [13 0] [12 4]] (REQUEST)
r 0.007216733 _0_ MAC  --- 0 AODV 48 [0 ffffffff 3 800] ------- [3:255 -1:255 29 0] [0x2 2 1 [13 0] [12 4]] (REQUEST)
r 0.007216861 _11_ MAC  --- 0 AODV 48 [0 ffffffff 3 800] ------- [3:255 -1:255 29 0] [0x2 2 1 [13 0] [12 4]] (REQUEST)
r 0.007216871 _4_ MAC  --- 0 AODV 48 [0 ffffffff 3 800] ------- [3:255 -1:255 29 0] [0x2 2 1 [13 0] [12 4]] (REQUEST)
r 0.007216877 _9_ MAC  --- 0 AODV 48 [0 ffffffff 3 800] ------- [3:255 -1:255 29 0] [0x2 2 1 [13 0] [12 4]] (REQUEST)
r 0.007217022 _1_ MAC  --- 0 AODV 48 [0 ffffffff 3 800] ------- [3:255 -1:255 29 0] [0x2 2 1 [13 0] [12 4]] (REQUEST)
r 0.007241002 _14_ RTR  --- 0 AODV 48 [0 ffffffff 3 800] ------- [3:255 -1:255 29 0] [0x2 2 1 [13 0] [12 4]] (REQUEST)
r 0.007241201 _2_ RTR  --- 0 AODV 48 [0 ffffffff 3 800] ------- [3:255 -1:255 29 0] [0x2 2 1 [13 0] [12 4]] (REQUEST)
r 0.007241278 _12_ RTR  --- 0 AODV 48 [0 ffffffff 3 800] ------- [3:255 -1:255 29 0] [0x2 2 1 [13 0] [12 4]] (REQUEST)
r 0.007241733 _0_ RTR  --- 0 AODV 48 [0 ffffffff 3 800] ------- [3:255 -1:255 29 0] [0x2 2 1 [13 0] [12 4]] (REQUEST)
r 0.007241861 _11_ RTR  --- 0 AODV 48 [0 ffffffff 3 800] ------- [3:255 -1:255 29 0] [0x2 2 1 [13 0] [12 4]] (REQUEST)
r 0.007241871 _4_ RTR  --- 0 AODV 48 [0 ffffffff 3 800] ------- [3:255 -1:255 29 0] [0x2 2 1 [13 0] [12 4]] (REQUEST)
r 0.007241877 _9_ RTR  --- 0 AODV 48 [0 ffffffff 3 800] ------- [3:255 -1:255 29 0] [0x2 2 1 [13 0] [12 4]] (REQUEST)
r 0.007242022 _1_ RTR  --- 0 AODV 48 [0 ffffffff 3 800] ------- [3:255 -1:255 29 0] [0x2 2 1 [13 0] [12 4]] (REQUEST)
s 0.007797848 _10_ RTR  --- 0 AODV 48 [0 ffffffff c 800] ------- [10:255 -1:255 29 0] [0x2 2 1 [13 0] [12 4]] (REQUEST)
s 0.008000000 _12_ AGT  --- 1 cbr 1000 [0 0 0 0] ------- [12:0 13:0 32 0] [1] 0 0
r 0.008000000 _12_ RTR  --- 1 cbr 1000 [0 0 0 0] ------- [12:0 13:0 32 0] [1] 0 0
s 0.008092848 _10_ MAC  --- 0 AODV 106 [0 ffffffff a 800] ------- [10:255 -1:255 29 0] [0x2 2 1 [13 0] [12 4]] (REQUEST)
r 0.008941511 _1_ MAC  --- 0 AODV 48 [0 ffffffff a 800] ------- [10:255 -1:255 29 0] [0x2 2 1 [13 0] [12 4]] (REQUEST)
r 0.008941589 _0_ MAC  --- 0 AODV 48 [0 ffffffff a 800] ------- [10:255 -1:255 29 0] [0x2 2 1 [13 0] [12 4]] (REQUEST)
r 0.008942044 _12_ MAC  --- 0 AODV 48 [0 ffffffff a 800] ------- [10:255 -1:255 29 0] [0x2 2 1 [13 0] [12 4]] (REQUEST)
r 0.008942174 _4_ MAC  --- 0 AODV 48 [0 ffffffff a 800] ------- [10:255 -1:255 29 0] [0x2 2 1 [13 0] [12 4]] (REQUEST)
r 0.008942181 _11_ MAC  --- 0 AODV 48 [0 ffffffff a 800] ------- [10:255 -1:255 29 0] [0x2 2 1 [13 0] [12 4]] (REQUEST)
r 0.008942260 _14_ MAC  --- 0 AODV 48 [0 ffffffff a 800] ------- [10:255 -1:255 29 0] [0x2 2 1 [13 0] [12 4]] (REQUEST)
r 0.008942335 _2_ MAC  --- 0 AODV 48 [0 ffffffff a 800] ------- [10:255 -1:255 29 0] [0x2 2 1 [13 0] [12 4]] (REQUEST)
r 0.008966511 _1_ RTR  --- 0 AODV 48 [0 ffffffff a 800] ------- [10:255 -1:255 29 0] [0x2 2 1 [13 0] [12 4]] (REQUEST)
r 0.008966589 _0_ RTR  --- 0 AODV 48 [0 ffffffff a 800] ------- [10:255 -1:255 29 0] [0x2 2 1 [13 0] [12 4]] (REQUEST)
r 0.008967044 _12_ RTR  --- 0 AODV 48 [0 ffffffff a 800] ------- [10:255 -1:255 29 0] [0x2 2 1 [13 0] [12 4]] (REQUEST)
r 0.008967174 _4_ RTR  --- 0 AODV 48 [0 ffffffff a 800] ------- [10:255 -1:255 29 0] [0x2 2 1 [13 0] [12 4]] (REQUEST)
r 0.008967181 _11_ RTR  --- 0 AODV 48 [0 ffffffff a 800] ------- [10:255 -1:255 29 0] [0x2 2 1 [13 0] [12 4]] (REQUEST)
r 0.008967260 _14_ RTR  --- 0 AODV 48 [0 ffffffff a 800] ------- [10:255 -1:255 29 0] [0x2 2 1 [13 0] [12 4]] (REQUEST)
r 0.008967335 _2_ RTR  --- 0 AODV 48 [0 ffffffff a 800] ------- [10:255 -1:255 29 0] [0x2 2 1 [13 0] [12 4]] (REQUEST)
s 0.009160756 _9_ RTR  --- 0 AODV 48 [0 ffffffff e 800] ------- [9:255 -1:255 28 0] [0x2 3 1 [13 0] [12 4]] (REQUEST)
s 0.009400298 _1_ RTR  --- 0 AODV 48 [0 ffffffff c 800] ------- [1:255 -1:255 29 0] [0x2 2 1 [13 0] [12 4]] (REQUEST)
s 0.009475756 _9_ MAC  --- 0 AODV 106 [0 ffffffff 9 800] ------- [9:255 -1:255 28 0] [0x2 3 1 [13 0] [12 4]] (REQUEST)
s 0.009573509 _4_ RTR  --- 0 AODV 48 [0 ffffffff c 800] ------- [4:255 -1:255 29 0] [0x2 2 1 [13 0] [12 4]] (REQUEST)
s 0.009963615 _15_ RTR  --- 0 AODV 48 [0 ffffffff e 800] ------- [15:255 -1:255 28 0] [0x2 3 1 [13 0] [12 4]] (REQUEST)
r 0.010324422 _8_ MAC  --- 0 AODV 48 [0 ffffffff 9 800] ------- [9:255 -1:255 28 0] [0x2 3 1 [13 0] [12 4]] (REQUEST)
r 0.010324501 _13_ MAC  --- 0 AODV 48 [0 ffffffff 9 800] ------- [9:255 -1:255 28 0] [0x2 3 1 [13 0] [12 4]] (REQUEST)
r 0.010324807 _15_ MAC  --- 0 AODV 48 [0 ffffffff 9 800] ------- [9:255 -1:255 28 0] [0x2 3 1 [13 0] [12 4]] (REQUEST)
r 0.010324953 _7_ MAC  --- 0 AODV 48 [0 ffffffff 9 800] ------- [9:255 -1:255 28 0] [0x2 3 1 [13 0] [12 4]] (REQUEST)
r 0.010325082 _5_ MAC  --- 0 AODV 48 [0 ffffffff 9 800] ------- [9:255 -1:255 28 0] [0x2 3 1 [13 0] [12 4]] (REQUEST)
r 0.010325096 _3_ MAC  --- 0 AODV 48 [0 ffffffff 9 800] ------- [9:255 -1:255 28 0] [0x2 3 1 [13 0] [12 4]] (REQUEST)
r 0.010325240 _6_ MAC  --- 0 AODV 48 [0 ffffffff 9 800] ------- [9:255 -1:255 28 0] [0x2 3 1 [13 0] [12 4]] (REQUEST)
r 0.010325455 _14_ MAC  --- 0 AODV 48 [0 ffffffff 9 800] ------- [9:255 -1:255 28 0] [0x2 3 1 [13 0] [12 4]] (REQUEST)
r 0.010349422 _8_ RTR  --- 0 AODV 48 [0 ffffffff 9 800] ------- [9:255 -1:255 28 0] [0x2 3 1 [13 0] [12 4]] (REQUEST)
r 0.010349501 _13_ RTR  --- 0 AODV 48 [0 ffffffff 9 800] ------- [9:255 -1:255 28 0] [0x2 3 1 [13 0] [12 4]] (REQUEST)
s 0.010349501 _13_ RTR  --- 0 AODV 44 [0 0 0 0] ------- [13:255 12:255 30 9] [0x4 1 [13 4] 10.000000] (REPLY)
r 0.010349807 _15_ RTR  --- 0 AODV 48 [0 ffffffff 9 800] ------- [9:255 -1:255 28 0] [0x2 3 1 [13 0] [12 4]] (REQUEST)
r 0.010349953 _7_ RTR  --- 0 AODV 48 [0 ffffffff 9 800] ------- [9:255 -1:255 28 0] [0x2 3 1 [13 0] [12 4]] (REQUEST)
r 0.010350082 _5_ RTR  --- 0 AODV 48 [0 ffffffff 9 800] ------- [9:255 -1:255 28 0] [0x2 3 1 [13 0] [12 4]] (REQUEST)
r 0.010350096 _3_ RTR  --- 0 AODV 48 [0 ffffffff 9 800] ------- [9:255 -1:255 28 0] [0x2 3 1 [13 0] [12 4]] (REQUEST)
r 0.010350240 _6_ RTR  --- 0 AODV 48 [0 ffffffff 9 800] ------- [9:255 -1:255 28 0] [0x2 3 1 [13 0] [12 4]] (REQUEST)
r 0.010350455 _14_ RTR  --- 0 AODV 48 [0 ffffffff 9 800] ------- [9:255 -1:255 28 0] [0x2 3 1 [13 0] [12 4]] (REQUEST)
s 0.010784501 _13_ MAC  --- 0 ARP 86 [0 ffffffff d 800] ------- [REQUEST 13/13 0/9]
r 0.011472831 _15_ MAC  --- 0 ARP 28 [0 ffffffff d 800] ------- [REQUEST 13/13 0/9]
r 0.011473164 _7_ MAC  --- 0 ARP 28 [0 ffffffff d 800] ------- [REQUEST 13/13 0/9]
r 0.011473240 _6_ MAC  --- 0 ARP 28 [0 ffffffff d 800] ------- [REQUEST 13/13 0/9]
r 0.011473242 _5_ MAC  --- 0 ARP 28 [0 ffffffff d 800] ------- [REQUEST 13/13 0/9]
r 0.011473243 _8_ MAC  --- 0 ARP 28 [0 ffffffff d 800] ------- [REQUEST 13/13 0/9]
r 0.011473246 _9_ MAC  --- 0 ARP 28 [0 ffffffff d 800] ------- [REQUEST 13/13 0/9]
s 0.011628246 _9_ MAC  --- 0 RTS 44 [52e d 9 0] 
r 0.011980992 _13_ MAC  --- 0 RTS 44 [52e d 9 0] 
s 0.011990992 _13_ MAC  --- 0 CTS 38 [3f4 9 0 0] 
r 0.012295737 _9_ MAC  --- 0 CTS 38 [3f4 9 0 0] 
s 0.012305737 _9_ MAC  --- 0 ARP 86 [13a d 9 800] ------- [REPLY 9/9 13/13]
s 0.012521017 _8_ RTR  --- 0 AODV 48 [0 ffffffff 9 800] ------- [8:255 -1:255 27 0] [0x2 4 1 [13 0] [12 4]] (REQUEST)
s 0.012762209 _7_ RTR  --- 0 AODV 48 [0 ffffffff 9 800] ------- [7:255 -1:255 27 0] [0x2 4 1 [13 0] [12 4]] (REQUEST)
r 0.012994482 _13_ MAC  --- 0 ARP 28 [13a d 9 800] ------- [REPLY 9/9 13/13]
s 0.013004482 _13_ MAC  --- 0 ACK 38 [0 9 0 0] 
r 0.013309228 _9_ MAC  --- 0 ACK 38 [0 9 0 0] 
s 0.013398482 _13_ MAC  --- 0 RTS 44 [5ae 9 d 0] 
r 0.013751228 _9_ MAC  --- 0 RTS 44 [5ae 9 d 0] 
s 0.013761228 _9_ MAC  --- 0 CTS 38 [474 d 0 0] 
r 0.014065973 _13_ MAC  --- 0 CTS 38 [474 d 0 0] 
s 0.014075973 _13_ MAC  --- 0 AODV 102 [13a 9 d 800] ------- [13:255 12:255 30 9] [0x4 1 [13 4] 10.000000] (REPLY)
r 0.014892718 _9_ MAC  --- 0 AODV 44 [13a 9 d 800] ------- [13:255 12:255 30 9] [0x4 1 [13 4] 10.000000] (REPLY)
s 0.014902718 _9_ MAC  --- 0 ACK 38 [0 d 0 0] 
r 0.014917718 _9_ RTR  --- 0 AODV 44 [13a 9 d 800] ------- [13:255 12:255 30 9] [0x4 1 [13 4] 10.000000] (REPLY)
f 0.014917718 _9_ RTR  --- 0 AODV 44 [13a 9 d 800] ------- [13:255 12:255 29 14] [0x4 2 [13 4] 10.000000] (REPLY)
r 0.015207464 _13_ MAC  --- 0 ACK 38 [0 d 0 0] 
s 0.015297769 _15_ MAC  --- 0 AODV 106 [0 ffffffff f 800] ------- [15:255 -1:255 28 0] [0x2 3 1 [13 0] [12 4]] (REQUEST)
s 0.016000000 _12_ AGT  --- 2 cbr 1000 [0 0 0 0] ------- [12:0 13:0 32 0] [2] 0 0
r 0.016000000 _12_ RTR  --- 2 cbr 1000 [0 0 0 0] ------- [12:0 13:0 32 0] [2] 0 0
r 0.016146099 _13_ MAC  --- 0 AODV 48 [0 ffffffff f 800] ------- [15:255 -1:255 28 0] [0x2 3 1 [13 0] [12 4]] (REQUEST)
r 0.016146238 _6_ MAC  --- 0 AODV 48 [0 ffffffff f 800] ------- [15:255 -1:255 28 0] [0x2 3 1 [13 0] [12 4]] (REQUEST)
r 0.016146241 _5_ MAC  --- 0 AODV 48 [0 ffffffff f 800] ------- [15:255 -1:255 28 0] [0x2 3 1 [13 0] [12 4]] (REQUEST)
r 0.016146512 _7_ MAC  --- 0 AODV 48 [0 ffffffff f 800] ------- [15:255 -1:255 28 0] [0x2 3 1 [13 0] [12 4]] (REQUEST)
r 0.016146817 _8_ MAC  --- 0 AODV 48 [0 ffffffff f 800] ------- [15:255 -1:255 28 0] [0x2 3 1 [13 0] [12 4]] (REQUEST)
r 0.016146820 _9_ MAC  --- 0 AODV 48 [0 ffffffff f 800] ------- [15:255 -1:255 28 0] [0x2 3 1 [13 0] [12 4]] (REQUEST)
r 0.016147473 _4_ MAC  --- 0 AODV 48 [0 ffffffff f 800] ------- [15:255 -1:255 28 0] [0x2 3 1 [13 0] [12 4]] (REQUEST)
r 0.016171099 _13_ RTR  --- 0 AODV 48 [0 ffffffff f 800] ------- [15:255 -1:255 28 0] [0x2 3 1 [13 0] [12 4]] (REQUEST)
r 0.016171238 _6_ RTR  --- 0 AODV 48 [0 ffffffff f 800] ------- [15:255 -1:255 28 0] [0x2 3 1 [13 0] [12 4]] (REQUEST)
r 0.016171241 _5_ RTR  --- 0 AODV 48 [0 ffffffff f 800] ------- [15:255 -1:255 28 0] [0x2 3 1 [13 0] [12 4]] (REQUEST)
r 0.016171512 _7_ RTR  --- 0 AODV 48 [0 ffffffff f 800] ------- [15:255 -1:255 28 0] [0x2 3 1 [13 0] [12 4]] (REQUEST)
r 0.016171817 _8_ RTR  --- 0 AODV 48 [0 ffffffff f 800] ------- [15:255 -1:255 28 0] [0x2 3 1 [13 0] [12 4]] (REQUEST)
r 0.016171820 _9_ RTR  --- 0 AODV 48 [0 ffffffff f 800] ------- [15:255 -1:255 28 0] [0x2 3 1 [13 0] [12 4]] (REQUEST)
r 0.016172473 _4_ RTR  --- 0 AODV 48 [0 ffffffff f 800] ------- [15:255 -1:255 28 0] [0x2 3 1 [13 0] [12 4]] (REQUEST)
s 0.016216820 _9_ MAC  --- 0 ARP 86 [0 ffffffff 9 800] ------- [REQUEST 9/9 0/14]
r 0.016905487 _8_ MAC  --- 0 ARP 28 [0 ffffffff 9 800] ------- [REQUEST 9/9 0/14]
r 0.016905566 _13_ MAC  --- 0 ARP 28 [0 ffffffff 9 800] ------- [REQUEST 9/9 0/14]
r 0.016905871 _15_ MAC  --- 0 ARP 28 [0 ffffffff 9 800] ------- [REQUEST 9/9 0/14]
r 0.016906018 _7_ MAC  --- 0 ARP 28 [0 ffffffff 9 800] ------- [REQUEST 9/9 0/14]
r 0.016906147 _5_ MAC  --- 0 ARP 28 [0 ffffffff 9 800] ------- [REQUEST 9/9 0/14]
r 0.016906160 _3_ MAC  --- 0 ARP 28 [0 ffffffff 9 800] ------- [REQUEST 9/9 0/14]
r 0.016906305 _6_ MAC  --- 0 ARP 28 [0 ffffffff 9 800] ------- [REQUEST 9/9 0/14]
r 0.016906519 _14_ MAC  --- 0 ARP 28 [0 ffffffff 9 800] ------- [REQUEST 9/9 0/14]
s 0.017056018 _7_ MAC  --- 0 AODV 106 [0 ffffffff 7 800] ------- [7:255 -1:255 27 0] [0x2 4 1 [13 0] [12 4]] (REQUEST)
s 0.017123730 _6_ RTR  --- 0 AODV 48 [0 ffffffff 9 800] ------- [6:255 -1:255 27 0] [0x2 4 1 [13 0] [12 4]] (REQUEST)
s 0.017561519 _14_ MAC  --- 0 RTS 44 [52e 9 e 0] 
D 0.017563218 _9_ MAC  COL 0 AODV 106 [0 ffffffff 7 800] ------- [7:255 -1:255 27 0] [0x2 4 1 [13 0] [12 4]] (REQUEST)
D 0.017563458 _5_ MAC  COL 0 AODV 106 [0 ffffffff 7 800] ------- [7:255 -1:255 27 0] [0x2 4 1 [13 0] [12 4]] (REQUEST)
r 0.017904681 _13_ MAC  --- 0 AODV 48 [0 ffffffff 7 800] ------- [7:255 -1:255 27 0] [0x2 4 1 [13 0] [12 4]] (REQUEST)
r 0.017904755 _8_ MAC  --- 0 AODV 48 [0 ffffffff 7 800] ------- [7:255 -1:255 27 0] [0x2 4 1 [13 0] [12 4]] (REQUEST)
r 0.017904758 _6_ MAC  --- 0 AODV 48 [0 ffffffff 7 800] ------- [7:255 -1:255 27 0] [0x2 4 1 [13 0] [12 4]] (REQUEST)
r 0.017904760 _15_ MAC  --- 0 AODV 48 [0 ffffffff 7 800] ------- [7:255 -1:255 27 0] [0x2 4 1 [13 0] [12 4]] (REQUEST)
D 0.017915218 _9_ MAC  COL 0 RTS 44 [52e 9 e 0] 
r 0.017929681 _13_ RTR  --- 0 AODV 48 [0 ffffffff 7 800] ------- [7:255 -1:255 27 0] [0x2 4 1 [13 0] [12 4]] (REQUEST)
r 0.017929755 _8_ RTR  --- 0 AODV 48 [0 ffffffff 7 800] ------- [7:255 -1:255 27 0] [0x2 4 1 [13 0] [12 4]] (REQUEST)
r 0.017929758 _6_ RTR  --- 0 AODV 48 [0 ffffffff 7 800] ------- [7:255 -1:255 27 0] [0x2 4 1 [13 0] [12 4]] (REQUEST)
r 0.017929760 _15_ RTR  --- 0 AODV 48 [0 ffffffff 7 800] ------- [7:255 -1:255 27 0] [0x2 4 1 [13 0] [12 4]] (REQUEST)
s 0.018390057 _6_ MAC  --- 0 AODV 106 [0 ffffffff 6 800] ------- [6:255 -1:255 27 0] [0x2 4 1 [13 0] [12 4]] (REQUEST)
s 0.018861148 _5_ RTR  --- 0 AODV 48 [0 ffffffff 9 800] ------- [5:255 -1:255 27 0] [0x2 4 1 [13 0] [12 4]] (REQUEST)
r 0.019238526 _15_ MAC  --- 0 AODV 48 [0 ffffffff 6 800] ------- [6:255 -1:255 27 0] [0x2 4 1 [13 0] [12 4]] (REQUEST)
r 0.019238727 _5_ MAC  --- 0 AODV 48 [0 ffffffff 6 800] ------- [6:255 -1:255 27 0] [0x2 4 1 [13 0] [12 4]] (REQUEST)
r 0.019238796 _13_ MAC  --- 0 AODV 48 [0 ffffffff 6 800] ------- [6:255 -1:255 27 0] [0x2 4 1 [13 0] [12 4]] (REQUEST)
r 0.019238797 _7_ MAC  --- 0 AODV 48 [0 ffffffff 6 800] ------- [6:255 -1:255 27 0] [0x2 4 1 [13 0] [12 4]] (REQUEST)
r 0.019239380 _8_ MAC  --- 0 AODV 48 [0 ffffffff 6 800] ------- [6:255 -1:255 27 0] [0x2 4 1 [13 0] [12 4]] (REQUEST)
r 0.019239541 _9_ MAC  --- 0 AODV 48 [0 ffffffff 6 800] ------- [6:255 -1:255 27 0] [0x2 4 1 [13 0] [12 4]] (REQUEST)
r 0.019263526 _15_ RTR  --- 0 AODV 48 [0 ffffffff 6 800] ------- [6:255 -1:255 27 0] [0x2 4 1 [13 0] [12 4]] (REQUEST)
r 0.019263727 _5_ RTR  --- 0 AODV 48 [0 ffffffff 6 800] ------- [6:255 -1:255 27 0] [0x2 4 1 [13 0] [12 4]] (REQUEST)
r 0.019263796 _13_ RTR  --- 0 AODV 48 [0 ffffffff 6 800] ------- [6:255 -1:255 27 0] [0x2 4 1 [13 0] [12 4]] (REQUEST)
r 0.019263797 _7_ RTR  --- 0 AODV 48 [0 ffffffff 6 800] ------- [6:255 -1:255 27 0] [0x2 4 1 [13 0] [12 4]] (REQUEST)
r 0.019264380 _8_ RTR  --- 0 AODV 48 [0 ffffffff 6 800] ------- [6:255 -1:255 27 0] [0x2 4 1 [13 0] [12 4]] (REQUEST)
r 0.019264541 _9_ RTR  --- 0 AODV 48 [0 ffffffff 6 800] ------- [6:255 -1:255 27 0] [0x2 4 1 [13 0] [12 4]] (REQUEST)
s 0.019309380 _8_ MAC  --- 0 AODV 106 [0 ffffffff 8 800] ------- [8:255 -1:255 27 0] [0x2 4 1 [13 0] [12 4]] (REQUEST)
s 0.019450573 _1_ MAC  --- 0 AODV 106 [0 ffffffff 1 800] ------- [1:255 -1:255 29 0] [0x2 2 1 [13 0] [12 4]] (REQUEST)
D 0.019452570 _5_ MAC  COL 0 AODV 106 [0 ffffffff 8 800] ------- [8:255 -1:255 27 0] [0x2 4 1 [13 0] [12 4]] (REQUEST)
r 0.020158047 _9_ MAC  --- 0 AODV 48 [0 ffffffff 8 800] ------- [8:255 -1:255 27 0] [0x2 4 1 [13 0] [12 4]] (REQUEST)
r 0.020158118 _7_ MAC  --- 0 AODV 48 [0 ffffffff 8 800] ------- [8:255 -1:255 27 0] [0x2 4 1 [13 0] [12 4]] (REQUEST)
r 0.020158122 _13_ MAC  --- 0 AODV 48 [0 ffffffff 8 800] ------- [8:255 -1:255 27 0] [0x2 4 1 [13 0] [12 4]] (REQUEST)
r 0.020158428 _15_ MAC  --- 0 AODV 48 [0 ffffffff 8 800] ------- [8:255 -1:255 27 0] [0x2 4 1 [13 0] [12 4]] (REQUEST)
r 0.020158703 _6_ MAC  --- 0 AODV 48 [0 ffffffff 8 800] ------- [8:255 -1:255 27 0] [0x2 4 1 [13 0] [12 4]] (REQUEST)
r 0.020183047 _9_ RTR  --- 0 AODV 48 [0 ffffffff 8 800] ------- [8:255 -1:255 27 0] [0x2 4 1 [13 0] [12 4]] (REQUEST)
r 0.020183118 _7_ RTR  --- 0 AODV 48 [0 ffffffff 8 800] ------- [8:255 -1:255 27 0] [0x2 4 1 [13 0] [12 4]] (REQUEST)
r 0.020183122 _13_ RTR  --- 0 AODV 48 [0 ffffffff 8 800] ------- [8:255 -1:255 27 0] [0x2 4 1 [13 0] [12 4]] (REQUEST)
r 0.020183428 _15_ RTR  --- 0 AODV 48 [0 ffffffff 8 800] ------- [8:255 -1:255 27 0] [0x2 4 1 [13 0] [12 4]] (REQUEST)
r 0.020183703 _6_ RTR  --- 0 AODV 48 [0 ffffffff 8 800] ------- [8:255 -1:255 27 0] [0x2 4 1 [13 0] [12 4]] (REQUEST)
r 0.020299237 _10_ MAC  --- 0 AODV 48 [0 ffffffff 1 800] ------- [1:255 -1:255 29 0] [0x2 2 1 [13 0] [12 4]] (REQUEST)
D 0.020299237 _4_ MAC  COL 0 AODV 106 [0 ffffffff 1 800] ------- [1:255 -1:255 29 0] [0x2 2 1 [13 0] [12 4]] (REQUEST)
r 0.020299316 _0_ MAC  --- 0 AODV 48 [0 ffffffff 1 800] ------- [1:255 -1:255 29 0] [0x2 2 1 [13 0] [12 4]] (REQUEST)
D 0.020299317 _12_ MAC  COL 0 AODV 106 [0 ffffffff 1 800] ------- [1:255 -1:255 29 0] [0x2 2 1 [13 0] [12 4]] (REQUEST)
D 0.020299627 _14_ MAC  COL 0 AODV 106 [0 ffffffff 1 800] ------- [1:255 -1:255 29 0] [0x2 2 1 [13 0] [12 4]] (REQUEST)
r 0.020299907 _2_ MAC  --- 0 AODV 48 [0 ffffffff 1 800] ------- [1:255 -1:255 29 0] [0x2 2 1 [13 0] [12 4]] (REQUEST)
D 0.020300058 _3_ MAC  COL 0 AODV 106 [0 ffffffff 1 800] ------- [1:255 -1:255 29 0] [0x2 2 1 [13 0] [12 4]] (REQUEST)
r 0.020300063 _11_ MAC  --- 0 AODV 48 [0 ffffffff 1 800] ------- [1:255 -1:255 29 0] [0x2 2 1 [13 0] [12 4]] (REQUEST)
r 0.020324237 _10_ RTR  --- 0 AODV 48 [0 ffffffff 1 800] ------- [1:255 -1:255 29 0] [0x2 2 1 [13 0] [12 4]] (REQUEST)
r 0.020324316 _0_ RTR  --- 0 AODV 48 [0 ffffffff 1 800] ------- [1:255 -1:255 29 0] [0x2 2 1 [13 0] [12 4]] (REQUEST)
r 0.020324907 _2_ RTR  --- 0 AODV 48 [0 ffffffff 1 800] ------- [1:255 -1:255 29 0] [0x2 2 1 [13 0] [12 4]] (REQUEST)
r 0.020325063 _11_ RTR  --- 0 AODV 48 [0 ffffffff 1 800] ------- [1:255 -1:255 29 0] [0x2 2 1 [13 0] [12 4]] (REQUEST)
s 0.020773237 _4_ MAC  --- 0 AODV 106 [0 ffffffff 4 800] ------- [4:255 -1:255 29 0] [0x2 2 1 [13 0] [12 4]] (REQUEST)
r 0.021621900 _1_ MAC  --- 0 AODV 48 [0 ffffffff 4 800] ------- [4:255 -1:255 29 0] [0x2 2 1 [13 0] [12 4]] (REQUEST)
r 0.021621985 _12_ MAC  --- 0 AODV 48 [0 ffffffff 4 800] ------- [4:255 -1:255 29 0] [0x2 2 1 [13 0] [12 4]] (REQUEST)
r 0.021622293 _14_ MAC  --- 0 AODV 48 [0 ffffffff 4 800] ------- [4:255 -1:255 29 0] [0x2 2 1 [13 0] [12 4]] (REQUEST)
r 0.021622436 _0_ MAC  --- 0 AODV 48 [0 ffffffff 4 800] ------- [4:255 -1:255 29 0] [0x2 2 1 [13 0] [12 4]] (REQUEST)
r 0.021622563 _10_ MAC  --- 0 AODV 48 [0 ffffffff 4 800] ------- [4:255 -1:255 29 0] [0x2 2 1 [13 0] [12 4]] (REQUEST)
r 0.021622570 _3_ MAC  --- 0 AODV 48 [0 ffffffff 4 800] ------- [4:255 -1:255 29 0] [0x2 2 1 [13 0] [12 4]] (REQUEST)
r 0.021622570 _5_ MAC  --- 0 AODV 48 [0 ffffffff 4 800] ------- [4:255 -1:255 29 0] [0x2 2 1 [13 0] [12 4]] (REQUEST)
r 0.021622730 _2_ MAC  --- 0 AODV 48 [0 ffffffff 4 800] ------- [4:255 -1:255 29 0] [0x2 2 1 [13 0] [12 4]] (REQUEST)
r 0.021622940 _15_ MAC  --- 0 AODV 48 [0 ffffffff 4 800] ------- [4:255 -1:255 29 0] [0x2 2 1 [13 0] [12 4]] (REQUEST)
r 0.021646900 _1_ RTR  --- 0 AODV 48 [0 ffffffff 4 800] ------- [4:255 -1:255 29 0] [0x2 2 1 [13 0] [12 4]] (REQUEST)